 VARIABLES ="X","Y","U","W","C","T","k","eps", "v2","omega","nuSA","yplus","RHO","Pe","mu","mut"
 ZONE I=            98  J=            16  F=POINT 
       0.0000000000E+000      -4.6333968368E-003       0.0000000000E+000       3.5381004371E-001       0.0000000000E+000       9.9999999878E-001       2.8883835927E+001       1.3835432206E+001       6.6666666667E-002       1.0000000000E-003       1.0000000000E-003       0.0000000000E+000       1.0000000003E+000       0.0000000000E+000       2.7777777791E-003       1.0000000000E+000
       0.0000000000E+000       4.6333968368E-003       0.0000000000E+000       3.5381004371E-001       0.0000000000E+000       9.9999999878E-001       2.8883835927E+001       1.3835432206E+001       6.6666666667E-002       1.0000000000E-003       1.0000000000E-003       0.0000000000E+000       1.0000000003E+000       0.0000000000E+000       2.7777777791E-003       1.0000000000E+000
       0.0000000000E+000       1.3960125430E-002       0.0000000000E+000       3.5363766480E-001       0.0000000000E+000       9.9999999878E-001       2.8882119340E+001       1.3833471308E+001       6.6666666667E-002       1.0000000000E-003       1.0000000000E-003       0.0000000000E+000       1.0000000003E+000       0.0000000000E+000       2.7777777791E-003       1.0000000000E+000
       0.0000000000E+000       2.3401918894E-002       0.0000000000E+000       3.5328639637E-001       0.0000000000E+000       9.9999999878E-001       2.8878693735E+001       1.3829561516E+001       6.6666666667E-002       1.0000000000E-003       1.0000000000E-003       0.0000000000E+000       1.0000000003E+000       0.0000000000E+000       2.7777777791E-003       1.0000000000E+000
       0.0000000000E+000       3.2948914513E-002       0.0000000000E+000       3.5275038218E-001       0.0000000000E+000       9.9999999878E-001       2.8873571099E+001       1.3823722236E+001       6.6666666667E-002       1.0000000000E-003       1.0000000000E-003       0.0000000000E+000       1.0000000003E+000       0.0000000000E+000       2.7777777791E-003       1.0000000000E+000
       0.0000000000E+000       4.2590763245E-002       0.0000000000E+000       3.5202448817E-001       0.0000000000E+000       9.9999999878E-001       2.8866762246E+001       1.3815973815E+001       6.6666666667E-002       1.0000000000E-003       1.0000000000E-003       0.0000000000E+000       1.0000000003E+000       0.0000000000E+000       2.7777777791E-003       1.0000000000E+000
       0.0000000000E+000       5.2316670463E-002       0.0000000000E+000       3.5110436519E-001       0.0000000000E+000       9.9999999878E-001       2.8858276649E+001       1.3806337308E+001       6.6666666667E-002       1.0000000000E-003       1.0000000000E-003       0.0000000000E+000       1.0000000003E+000       0.0000000000E+000       2.7777777791E-003       1.0000000000E+000
       0.0000000000E+000       6.2115441043E-002       0.0000000000E+000       3.4998650544E-001       0.0000000000E+000       9.9999999878E-001       2.8848122286E+001       1.3794834273E+001       6.6666666667E-002       1.0000000000E-003       1.0000000000E-003       0.0000000000E+000       1.0000000003E+000       0.0000000000E+000       2.7777777791E-003       1.0000000000E+000
       0.0000000000E+000       7.1975528421E-002       0.0000000000E+000       3.4866829190E-001       0.0000000000E+000       9.9999999878E-001       2.8836305516E+001       1.3781486573E+001       6.6666666667E-002       1.0000000000E-003       1.0000000000E-003       0.0000000000E+000       1.0000000003E+000       0.0000000000E+000       2.7777777791E-003       1.0000000000E+000
       0.0000000000E+000       8.1885087210E-002       0.0000000000E+000       3.4714803945E-001       0.0000000000E+000       9.9999999878E-001       2.8822830971E+001       1.3766316212E+001       6.6666666667E-002       1.0000000000E-003       1.0000000000E-003       0.0000000000E+000       1.0000000003E+000       0.0000000000E+000       2.7777777791E-003       1.0000000000E+000
       0.0000000000E+000       9.1832028879E-002       0.0000000000E+000       3.4542502717E-001       0.0000000000E+000       9.9999999878E-001       2.8807701492E+001       1.3749345183E+001       6.6666666667E-002       1.0000000000E-003       1.0000000000E-003       0.0000000000E+000       1.0000000003E+000       0.0000000000E+000       2.7777777791E-003       1.0000000000E+000
       0.0000000000E+000       1.0180407995E-001       0.0000000000E+000       3.4349952103E-001       0.0000000000E+000       9.9999999878E-001       2.8790918079E+001       1.3730595349E+001       6.6666666667E-002       1.0000000000E-003       1.0000000000E-003       0.0000000000E+000       1.0000000003E+000       0.0000000000E+000       2.7777777791E-003       1.0000000000E+000
       0.0000000000E+000       1.1178884212E-001       0.0000000000E+000       3.4137278649E-001       0.0000000000E+000       9.9999999878E-001       2.8772479893E+001       1.3710088361E+001       6.6666666667E-002       1.0000000000E-003       1.0000000000E-003       0.0000000000E+000       1.0000000003E+000       0.0000000000E+000       2.7777777791E-003       1.0000000000E+000
       0.0000000000E+000       1.2177385375E-001       0.0000000000E+000       3.3904709062E-001       0.0000000000E+000       9.9999999878E-001       2.8752384272E+001       1.3687845590E+001       6.6666666667E-002       1.0000000000E-003       1.0000000000E-003       0.0000000000E+000       1.0000000003E+000       0.0000000000E+000       2.7777777791E-003       1.0000000000E+000
       0.0000000000E+000       1.3174665193E-001       0.0000000000E+000       3.3652569373E-001       0.0000000000E+000       9.9999999878E-001       2.8730626793E+001       1.3663888105E+001       6.6666666667E-002       1.0000000000E-003       1.0000000000E-003       0.0000000000E+000       1.0000000003E+000       0.0000000000E+000       2.7777777791E-003       1.0000000000E+000
       0.0000000000E+000       1.4169483466E-001       0.0000000000E+000       3.3381283042E-001       0.0000000000E+000       9.9999999878E-001       2.8707201363E+001       1.3638236676E+001       6.6666666667E-002       1.0000000000E-003       1.0000000000E-003       0.0000000000E+000       1.0000000003E+000       0.0000000000E+000       2.7777777791E-003       1.0000000000E+000
       0.0000000000E+000       1.5160612229E-001       0.0000000000E+000       3.3091368039E-001       0.0000000000E+000       9.9999999878E-001       2.8682100340E+001       1.3610911803E+001       6.6666666667E-002       1.0000000000E-003       1.0000000000E-003       0.0000000000E+000       1.0000000003E+000       0.0000000000E+000       2.7777777791E-003       1.0000000000E+000
       0.0000000000E+000       1.6146841776E-001       0.0000000000E+000       3.2783432937E-001       0.0000000000E+000       9.9999999878E-001       2.8655314681E+001       1.3581933781E+001       6.6666666667E-002       1.0000000000E-003       1.0000000000E-003       0.0000000000E+000       1.0000000003E+000       0.0000000000E+000       2.7777777791E-003       1.0000000000E+000
       0.0000000000E+000       1.7126986487E-001       0.0000000000E+000       3.2458172079E-001       0.0000000000E+000       9.9999999878E-001       2.8626834128E+001       1.3551322783E+001       6.6666666667E-002       1.0000000000E-003       1.0000000000E-003       0.0000000000E+000       1.0000000003E+000       0.0000000000E+000       2.7777777791E-003       1.0000000000E+000
       0.0000000000E+000       1.8099890407E-001       0.0000000000E+000       3.2116359896E-001       0.0000000000E+000       9.9999999878E-001       2.8596647398E+001       1.3519098971E+001       6.6666666667E-002       1.0000000000E-003       1.0000000000E-003       0.0000000000E+000       1.0000000003E+000       0.0000000000E+000       2.7777777791E-003       1.0000000000E+000
       0.0000000000E+000       1.9064432522E-001       0.0000000000E+000       3.1758844464E-001       0.0000000000E+000       9.9999999878E-001       2.8564742414E+001       1.3485282620E+001       6.6666666667E-002       1.0000000000E-003       1.0000000000E-003       0.0000000000E+000       1.0000000003E+000       0.0000000000E+000       2.7777777791E-003       1.0000000000E+000
       0.0000000000E+000       2.0019531677E-001       0.0000000000E+000       3.1386540404E-001       0.0000000000E+000       9.9999999878E-001       2.8531106536E+001       1.3449894263E+001       6.6666666667E-002       1.0000000000E-003       1.0000000000E-003       0.0000000000E+000       1.0000000003E+000       0.0000000000E+000       2.7777777791E-003       1.0000000000E+000
       0.0000000000E+000       2.0964151104E-001       0.0000000000E+000       3.1000421238E-001       0.0000000000E+000       9.9999999878E-001       2.8495726814E+001       1.3412954840E+001       6.6666666667E-002       1.0000000000E-003       1.0000000000E-003       0.0000000000E+000       1.0000000003E+000       0.0000000000E+000       2.7777777791E-003       1.0000000000E+000
       0.0000000000E+000       2.1897302515E-001       0.0000000000E+000       3.0601511308E-001       0.0000000000E+000       9.9999999878E-001       2.8458590242E+001       1.3374485863E+001       6.6666666667E-002       1.0000000000E-003       1.0000000000E-003       0.0000000000E+000       1.0000000003E+000       0.0000000000E+000       2.7777777791E-003       1.0000000000E+000
       0.0000000000E+000       2.2818049727E-001       0.0000000000E+000       3.0190877400E-001       0.0000000000E+000       9.9999999878E-001       2.8419684020E+001       1.3334509570E+001       6.6666666667E-002       1.0000000000E-003       1.0000000000E-003       0.0000000000E+000       1.0000000003E+000       0.0000000000E+000       2.7777777791E-003       1.0000000000E+000
       0.0000000000E+000       2.3725511815E-001       0.0000000000E+000       2.9769620171E-001       0.0000000000E+000       9.9999999878E-001       2.8378995814E+001       1.3293049091E+001       6.6666666667E-002       1.0000000000E-003       1.0000000000E-003       0.0000000000E+000       1.0000000003E+000       0.0000000000E+000       2.7777777791E-003       1.0000000000E+000
       0.0000000000E+000       2.4618865751E-001       0.0000000000E+000       2.9338865521E-001       0.0000000000E+000       9.9999999878E-001       2.8336514009E+001       1.3250128595E+001       6.6666666667E-002       1.0000000000E-003       1.0000000000E-003       0.0000000000E+000       1.0000000003E+000       0.0000000000E+000       2.7777777791E-003       1.0000000000E+000
       0.0000000000E+000       2.5497348552E-001       0.0000000000E+000       2.8899756018E-001       0.0000000000E+000       9.9999999878E-001       2.8292227958E+001       1.3205773436E+001       6.6666666667E-002       1.0000000000E-003       1.0000000000E-003       0.0000000000E+000       1.0000000003E+000       0.0000000000E+000       2.7777777791E-003       1.0000000000E+000
       0.0000000000E+000       2.6360258909E-001       0.0000000000E+000       2.8453442478E-001       0.0000000000E+000       9.9999999878E-001       2.8246128209E+001       1.3160010282E+001       6.6666666667E-002       1.0000000000E-003       1.0000000000E-003       0.0000000000E+000       1.0000000003E+000       0.0000000000E+000       2.7777777791E-003       1.0000000000E+000
       0.0000000000E+000       2.7206958327E-001       0.0000000000E+000       2.8001075822E-001       0.0000000000E+000       9.9999999878E-001       2.8198206732E+001       1.3112867227E+001       6.6666666667E-002       1.0000000000E-003       1.0000000000E-003       0.0000000000E+000       1.0000000003E+000       0.0000000000E+000       2.7777777791E-003       1.0000000000E+000
       0.0000000000E+000       2.8036871763E-001       0.0000000000E+000       2.7543799284E-001       0.0000000000E+000       9.9999999878E-001       2.8148457112E+001       1.3064373887E+001       6.6666666667E-002       1.0000000000E-003       1.0000000000E-003       0.0000000000E+000       1.0000000003E+000       0.0000000000E+000       2.7777777791E-003       1.0000000000E+000
       0.0000000000E+000       2.8849487814E-001       0.0000000000E+000       2.7082741058E-001       0.0000000000E+000       9.9999999878E-001       2.8096874736E+001       1.3014561472E+001       6.6666666667E-002       1.0000000000E-003       1.0000000000E-003       0.0000000000E+000       1.0000000003E+000       0.0000000000E+000       2.7777777791E-003       1.0000000000E+000
       0.0000000000E+000       2.9644358439E-001       0.0000000000E+000       2.6619007451E-001       0.0000000000E+000       9.9999999878E-001       2.8043456942E+001       1.2963462839E+001       6.6666666667E-002       1.0000000000E-003       1.0000000000E-003       0.0000000000E+000       1.0000000003E+000       0.0000000000E+000       2.7777777791E-003       1.0000000000E+000
       0.0000000000E+000       3.0421098279E-001       0.0000000000E+000       2.6153676603E-001       0.0000000000E+000       9.9999999878E-001       2.7988203166E+001       1.2911112520E+001       6.6666666667E-002       1.0000000000E-003       1.0000000000E-003       0.0000000000E+000       1.0000000003E+000       0.0000000000E+000       2.7777777791E-003       1.0000000000E+000
       0.0000000000E+000       3.1179383578E-001       0.0000000000E+000       2.5687792801E-001       0.0000000000E+000       9.9999999878E-001       2.7931115042E+001       1.2857546730E+001       6.6666666667E-002       1.0000000000E-003       1.0000000000E-003       0.0000000000E+000       1.0000000003E+000       0.0000000000E+000       2.7777777791E-003       1.0000000000E+000
       0.0000000000E+000       3.1918950757E-001       0.0000000000E+000       2.5222361446E-001       0.0000000000E+000       9.9999999878E-001       2.7872196498E+001       1.2802803350E+001       6.6666666667E-002       1.0000000000E-003       1.0000000000E-003       0.0000000000E+000       1.0000000003E+000       0.0000000000E+000       2.7777777791E-003       1.0000000000E+000
       0.0000000000E+000       3.2639594666E-001       0.0000000000E+000       2.4758344653E-001       0.0000000000E+000       9.9999999878E-001       2.7811453814E+001       1.2746921884E+001       6.6666666667E-002       1.0000000000E-003       1.0000000000E-003       0.0000000000E+000       1.0000000003E+000       0.0000000000E+000       2.7777777791E-003       1.0000000000E+000
       0.0000000000E+000       3.3341166559E-001       0.0000000000E+000       2.4296657528E-001       0.0000000000E+000       9.9999999878E-001       2.7748895665E+001       1.2689943406E+001       6.6666666667E-002       1.0000000000E-003       1.0000000000E-003       0.0000000000E+000       1.0000000003E+000       0.0000000000E+000       2.7777777791E-003       1.0000000000E+000
       0.0000000000E+000       3.4023571818E-001       0.0000000000E+000       2.3838165087E-001       0.0000000000E+000       9.9999999878E-001       2.7684533135E+001       1.2631910474E+001       6.6666666667E-002       1.0000000000E-003       1.0000000000E-003       0.0000000000E+000       1.0000000003E+000       0.0000000000E+000       2.7777777791E-003       1.0000000000E+000
       0.0000000000E+000       3.4686767480E-001       0.0000000000E+000       2.3383679828E-001       0.0000000000E+000       9.9999999878E-001       2.7618379717E+001       1.2572867036E+001       6.6666666667E-002       1.0000000000E-003       1.0000000000E-003       0.0000000000E+000       1.0000000003E+000       0.0000000000E+000       2.7777777791E-003       1.0000000000E+000
       0.0000000000E+000       3.5330759591E-001       0.0000000000E+000       2.2933959914E-001       0.0000000000E+000       9.9999999878E-001       2.7550451286E+001       1.2512858314E+001       6.6666666667E-002       1.0000000000E-003       1.0000000000E-003       0.0000000000E+000       1.0000000003E+000       0.0000000000E+000       2.7777777791E-003       1.0000000000E+000
       0.0000000000E+000       3.5955600420E-001       0.0000000000E+000       2.2489707948E-001       0.0000000000E+000       9.9999999878E-001       2.7480766060E+001       1.2451930681E+001       6.6666666667E-002       1.0000000000E-003       1.0000000000E-003       0.0000000000E+000       1.0000000003E+000       0.0000000000E+000       2.7777777791E-003       1.0000000000E+000
       0.0000000000E+000       3.6561385588E-001       0.0000000000E+000       2.2051570310E-001       0.0000000000E+000       9.9999999878E-001       2.7409344535E+001       1.2390131513E+001       6.6666666667E-002       1.0000000000E-003       1.0000000000E-003       0.0000000000E+000       1.0000000003E+000       0.0000000000E+000       2.7777777791E-003       1.0000000000E+000
       0.0000000000E+000       3.7148251118E-001       0.0000000000E+000       2.1620136997E-001       0.0000000000E+000       9.9999999878E-001       2.7336209417E+001       1.2327509048E+001       6.6666666667E-002       1.0000000000E-003       1.0000000000E-003       0.0000000000E+000       1.0000000003E+000       0.0000000000E+000       2.7777777791E-003       1.0000000000E+000
       0.0000000000E+000       3.7716370456E-001       0.0000000000E+000       2.1195941946E-001       0.0000000000E+000       9.9999999878E-001       2.7261385535E+001       1.2264112225E+001       6.6666666667E-002       1.0000000000E-003       1.0000000000E-003       0.0000000000E+000       1.0000000003E+000       0.0000000000E+000       2.7777777791E-003       1.0000000000E+000
       0.0000000000E+000       3.8265951477E-001       0.0000000000E+000       2.0779463776E-001       0.0000000000E+000       9.9999999878E-001       2.7184899737E+001       1.2199990526E+001       6.6666666667E-002       1.0000000000E-003       1.0000000000E-003       0.0000000000E+000       1.0000000003E+000       0.0000000000E+000       2.7777777791E-003       1.0000000000E+000
       0.0000000000E+000       3.8797233517E-001       0.0000000000E+000       2.0371126911E-001       0.0000000000E+000       9.9999999878E-001       2.7106780791E+001       1.2135193808E+001       6.6666666667E-002       1.0000000000E-003       1.0000000000E-003       0.0000000000E+000       1.0000000003E+000       0.0000000000E+000       2.7777777791E-003       1.0000000000E+000
       0.0000000000E+000       3.9310484436E-001       0.0000000000E+000       1.9971303042E-001       0.0000000000E+000       9.9999999878E-001       2.7027059266E+001       1.2069772140E+001       6.6666666667E-002       1.0000000000E-003       1.0000000000E-003       0.0000000000E+000       1.0000000003E+000       0.0000000000E+000       2.7777777791E-003       1.0000000000E+000
       0.0000000000E+000       3.9805997742E-001       0.0000000000E+000       1.9580312862E-001       0.0000000000E+000       9.9999999878E-001       2.6945767413E+001       1.2003775637E+001       6.6666666667E-002       1.0000000000E-003       1.0000000000E-003       0.0000000000E+000       1.0000000003E+000       0.0000000000E+000       2.7777777791E-003       1.0000000000E+000
       0.0000000000E+000       4.0284089799E-001       0.0000000000E+000       1.9198428052E-001       0.0000000000E+000       9.9999999878E-001       2.6862939043E+001       1.1937254301E+001       6.6666666667E-002       1.0000000000E-003       1.0000000000E-003       0.0000000000E+000       1.0000000003E+000       0.0000000000E+000       2.7777777791E-003       1.0000000000E+000
       0.0000000000E+000       4.0745097118E-001       0.0000000000E+000       1.8825873461E-001       0.0000000000E+000       9.9999999878E-001       2.6778609395E+001       1.1870257859E+001       6.6666666667E-002       1.0000000000E-003       1.0000000000E-003       0.0000000000E+000       1.0000000003E+000       0.0000000000E+000       2.7777777791E-003       1.0000000000E+000
       0.0000000000E+000       4.1189373758E-001       0.0000000000E+000       1.8462829440E-001       0.0000000000E+000       9.9999999878E-001       2.6692815014E+001       1.1802835616E+001       6.6666666667E-002       1.0000000000E-003       1.0000000000E-003       0.0000000000E+000       1.0000000003E+000       0.0000000000E+000       2.7777777791E-003       1.0000000000E+000
       0.0000000000E+000       4.1617288839E-001       0.0000000000E+000       1.8109434292E-001       0.0000000000E+000       9.9999999878E-001       2.6605593622E+001       1.1735036304E+001       6.6666666667E-002       1.0000000000E-003       1.0000000000E-003       0.0000000000E+000       1.0000000003E+000       0.0000000000E+000       2.7777777791E-003       1.0000000000E+000
       0.0000000000E+000       4.2029224178E-001       0.0000000000E+000       1.7765786806E-001       0.0000000000E+000       9.9999999878E-001       2.6516983990E+001       1.1666907951E+001       6.6666666667E-002       1.0000000000E-003       1.0000000000E-003       0.0000000000E+000       1.0000000003E+000       0.0000000000E+000       2.7777777791E-003       1.0000000000E+000
       0.0000000000E+000       4.2425572057E-001       0.0000000000E+000       1.7431948844E-001       0.0000000000E+000       9.9999999878E-001       2.6427025811E+001       1.1598497743E+001       6.6666666667E-002       1.0000000000E-003       1.0000000000E-003       0.0000000000E+000       1.0000000003E+000       0.0000000000E+000       2.7777777791E-003       1.0000000000E+000
       0.0000000000E+000       4.2806733114E-001       0.0000000000E+000       1.7107947933E-001       0.0000000000E+000       9.9999999878E-001       2.6335759587E+001       1.1529851914E+001       6.6666666667E-002       1.0000000000E-003       1.0000000000E-003       0.0000000000E+000       1.0000000003E+000       0.0000000000E+000       2.7777777791E-003       1.0000000000E+000
       0.0000000000E+000       4.3173114379E-001       0.0000000000E+000       1.6793779869E-001       0.0000000000E+000       9.9999999878E-001       2.6243226500E+001       1.1461015627E+001       6.6666666667E-002       1.0000000000E-003       1.0000000000E-003       0.0000000000E+000       1.0000000003E+000       0.0000000000E+000       2.7777777791E-003       1.0000000000E+000
       0.0000000000E+000       4.3525127437E-001       0.0000000000E+000       1.6489411281E-001       0.0000000000E+000       9.9999999878E-001       2.6149468308E+001       1.1392032877E+001       6.6666666667E-002       1.0000000000E-003       1.0000000000E-003       0.0000000000E+000       1.0000000003E+000       0.0000000000E+000       2.7777777791E-003       1.0000000000E+000
       0.0000000000E+000       4.3863186730E-001       0.0000000000E+000       1.6194782143E-001       0.0000000000E+000       9.9999999878E-001       2.6054527228E+001       1.1322946403E+001       6.6666666667E-002       1.0000000000E-003       1.0000000000E-003       0.0000000000E+000       1.0000000003E+000       0.0000000000E+000       2.7777777791E-003       1.0000000000E+000
       0.0000000000E+000       4.4187707994E-001       0.0000000000E+000       1.5909808231E-001       0.0000000000E+000       9.9999999878E-001       2.5958445839E+001       1.1253797602E+001       6.6666666667E-002       1.0000000000E-003       1.0000000000E-003       0.0000000000E+000       1.0000000003E+000       0.0000000000E+000       2.7777777791E-003       1.0000000000E+000
       0.0000000000E+000       4.4499106819E-001       0.0000000000E+000       1.5634383492E-001       0.0000000000E+000       9.9999999878E-001       2.5861266977E+001       1.1184626465E+001       6.6666666667E-002       1.0000000000E-003       1.0000000000E-003       0.0000000000E+000       1.0000000003E+000       0.0000000000E+000       2.7777777791E-003       1.0000000000E+000
       0.0000000000E+000       4.4797797343E-001       0.0000000000E+000       1.5368382322E-001       0.0000000000E+000       9.9999999878E-001       2.5763033644E+001       1.1115471512E+001       6.6666666667E-002       1.0000000000E-003       1.0000000000E-003       0.0000000000E+000       1.0000000003E+000       0.0000000000E+000       2.7777777791E-003       1.0000000000E+000
       0.0000000000E+000       4.5084191063E-001       0.0000000000E+000       1.5111661750E-001       0.0000000000E+000       9.9999999878E-001       2.5663788920E+001       1.1046369745E+001       6.6666666667E-002       1.0000000000E-003       1.0000000000E-003       0.0000000000E+000       1.0000000003E+000       0.0000000000E+000       2.7777777791E-003       1.0000000000E+000
       0.0000000000E+000       4.5358695766E-001       0.0000000000E+000       1.4864063505E-001       0.0000000000E+000       9.9999999878E-001       2.5563575880E+001       1.0977356604E+001       6.6666666667E-002       1.0000000000E-003       1.0000000000E-003       0.0000000000E+000       1.0000000003E+000       0.0000000000E+000       2.7777777791E-003       1.0000000000E+000
       0.0000000000E+000       4.5621714576E-001       0.0000000000E+000       1.4625415981E-001       0.0000000000E+000       9.9999999878E-001       2.5462437517E+001       1.0908465938E+001       6.6666666667E-002       1.0000000000E-003       1.0000000000E-003       0.0000000000E+000       1.0000000003E+000       0.0000000000E+000       2.7777777791E-003       1.0000000000E+000
       0.0000000000E+000       4.5873645099E-001       0.0000000000E+000       1.4395536079E-001       0.0000000000E+000       9.9999999878E-001       2.5360416668E+001       1.0839729982E+001       6.6666666667E-002       1.0000000000E-003       1.0000000000E-003       0.0000000000E+000       1.0000000003E+000       0.0000000000E+000       2.7777777791E-003       1.0000000000E+000
       0.0000000000E+000       4.6114878677E-001       0.0000000000E+000       1.4174230940E-001       0.0000000000E+000       9.9999999878E-001       2.5257555951E+001       1.0771179340E+001       6.6666666667E-002       1.0000000000E-003       1.0000000000E-003       0.0000000000E+000       1.0000000003E+000       0.0000000000E+000       2.7777777791E-003       1.0000000000E+000
       0.0000000000E+000       4.6345799731E-001       0.0000000000E+000       1.3961299556E-001       0.0000000000E+000       9.9999999878E-001       2.5153897703E+001       1.0702842977E+001       6.6666666667E-002       1.0000000000E-003       1.0000000000E-003       0.0000000000E+000       1.0000000003E+000       0.0000000000E+000       2.7777777791E-003       1.0000000000E+000
       0.0000000000E+000       4.6566785199E-001       0.0000000000E+000       1.3756534266E-001       0.0000000000E+000       9.9999999878E-001       2.5049483918E+001       1.0634748223E+001       6.6666666667E-002       1.0000000000E-003       1.0000000000E-003       0.0000000000E+000       1.0000000003E+000       0.0000000000E+000       2.7777777791E-003       1.0000000000E+000
       0.0000000000E+000       4.6778204052E-001       0.0000000000E+000       1.3559722141E-001       0.0000000000E+000       9.9999999878E-001       2.4944356204E+001       1.0566920776E+001       6.6666666667E-002       1.0000000000E-003       1.0000000000E-003       0.0000000000E+000       1.0000000003E+000       0.0000000000E+000       2.7777777791E-003       1.0000000000E+000
       0.0000000000E+000       4.6980416890E-001       0.0000000000E+000       1.3370646256E-001       0.0000000000E+000       9.9999999878E-001       2.4838555726E+001       1.0499384719E+001       6.6666666667E-002       1.0000000000E-003       1.0000000000E-003       0.0000000000E+000       1.0000000003E+000       0.0000000000E+000       2.7777777791E-003       1.0000000000E+000
       0.0000000000E+000       4.7173775606E-001       0.0000000000E+000       1.3189086857E-001       0.0000000000E+000       9.9999999878E-001       2.4732123171E+001       1.0432162533E+001       6.6666666667E-002       1.0000000000E-003       1.0000000000E-003       0.0000000000E+000       1.0000000003E+000       0.0000000000E+000       2.7777777791E-003       1.0000000000E+000
       0.0000000000E+000       4.7358623122E-001       0.0000000000E+000       1.3014822424E-001       0.0000000000E+000       9.9999999878E-001       2.4625098703E+001       1.0365275127E+001       6.6666666667E-002       1.0000000000E-003       1.0000000000E-003       0.0000000000E+000       1.0000000003E+000       0.0000000000E+000       2.7777777791E-003       1.0000000000E+000
       0.0000000000E+000       4.7535293177E-001       0.0000000000E+000       1.2847630634E-001       0.0000000000E+000       9.9999999878E-001       2.4517521931E+001       1.0298741863E+001       6.6666666667E-002       1.0000000000E-003       1.0000000000E-003       0.0000000000E+000       1.0000000003E+000       0.0000000000E+000       2.7777777791E-003       1.0000000000E+000
       0.0000000000E+000       4.7704110176E-001       0.0000000000E+000       1.2687289230E-001       0.0000000000E+000       9.9999999878E-001       2.4409431875E+001       1.0232580590E+001       6.6666666667E-002       1.0000000000E-003       1.0000000000E-003       0.0000000000E+000       1.0000000003E+000       0.0000000000E+000       2.7777777791E-003       1.0000000000E+000
       0.0000000000E+000       4.7865389090E-001       0.0000000000E+000       1.2533576805E-001       0.0000000000E+000       9.9999999878E-001       2.4300866939E+001       1.0166807680E+001       6.6666666667E-002       1.0000000000E-003       1.0000000000E-003       0.0000000000E+000       1.0000000003E+000       0.0000000000E+000       2.7777777791E-003       1.0000000000E+000
       0.0000000000E+000       4.8019435391E-001       0.0000000000E+000       1.2386273500E-001       0.0000000000E+000       9.9999999878E-001       2.4191864883E+001       1.0101438069E+001       6.6666666667E-002       1.0000000000E-003       1.0000000000E-003       0.0000000000E+000       1.0000000003E+000       0.0000000000E+000       2.7777777791E-003       1.0000000000E+000