 VARIABLES ="X","Y","U","W","P","C","T","k","eps", "v2","omega","nuSA","yplus","RHO","Pe","mu","mut"
 ZONE I=            98  J=            40  F=POINT 
       0.0000000000E+000      -9.2667936736E-003       0.0000000000E+000       1.9874117905E+001      -5.9837903328E+014       0.0000000000E+000       1.0000000000E+000       5.9628989824E-001       5.8473273158E-001       6.6666666667E-002       1.0000000000E-003       1.0000000000E-003       0.0000000000E+000       1.0000000000E+000       0.0000000000E+000       2.7777777778E-003       6.7063372802E-002
       0.0000000000E+000       9.2667936736E-003       0.0000000000E+000       1.9874117905E+001      -5.9837903328E+014       0.0000000000E+000       1.0000000000E+000       5.9628989824E-001       5.8473273158E-001       6.6666666667E-002       1.0000000000E-003       1.0000000000E-003       0.0000000000E+000       1.0000000000E+000       0.0000000000E+000       2.7777777778E-003       6.7063372802E-002
       0.0000000000E+000       2.7920250859E-002       0.0000000000E+000       1.9869171600E+001      -5.9837903328E+014       0.0000000000E+000       1.0000000000E+000       6.0027294879E-001       5.9128465927E-001       6.6666666667E-002       1.0000000000E-003       1.0000000000E-003       0.0000000000E+000       1.0000000000E+000       0.0000000000E+000       2.7777777778E-003       6.7152823457E-002
       0.0000000000E+000       4.6803837788E-002       0.0000000000E+000       1.9859114359E+001      -5.9837903328E+014       0.0000000000E+000       1.0000000000E+000       6.0834333096E-001       6.0461995680E-001       6.6666666667E-002       1.0000000000E-003       1.0000000000E-003       0.0000000000E+000       1.0000000000E+000       0.0000000000E+000       2.7777777778E-003       6.7373735807E-002
       0.0000000000E+000       6.5897829027E-002       0.0000000000E+000       1.9843830453E+001      -5.9837903328E+014       0.0000000000E+000       1.0000000000E+000       6.2055207718E-001       6.2493507233E-001       6.6666666667E-002       1.0000000000E-003       1.0000000000E-003       0.0000000000E+000       1.0000000000E+000       0.0000000000E+000       2.7777777778E-003       6.7729992197E-002
       0.0000000000E+000       8.5181526490E-002       0.0000000000E+000       1.9823256445E+001      -5.9837903328E+014       0.0000000000E+000       1.0000000000E+000       6.3688670536E-001       6.5238059126E-001       6.6666666667E-002       1.0000000000E-003       1.0000000000E-003       0.0000000000E+000       1.0000000000E+000       0.0000000000E+000       2.7777777778E-003       6.8223610227E-002
       0.0000000000E+000       1.0463334093E-001       0.0000000000E+000       1.9797382609E+001      -5.9837903328E+014       0.0000000000E+000       1.0000000000E+000       6.5727158363E-001       6.8705874110E-001       6.6666666667E-002       1.0000000000E-003       1.0000000000E-003       0.0000000000E+000       1.0000000000E+000       0.0000000000E+000       2.7777777778E-003       6.8853499418E-002
       0.0000000000E+000       1.2423088209E-001       0.0000000000E+000       1.9766251709E+001      -5.9837903328E+014       0.0000000000E+000       1.0000000000E+000       6.8157187476E-001       7.2902363520E-001       6.6666666667E-002       1.0000000000E-003       1.0000000000E-003       0.0000000000E+000       1.0000000000E+000       0.0000000000E+000       2.7777777778E-003       6.9614430001E-002
       0.0000000000E+000       1.4395105684E-001       0.0000000000E+000       1.9729954981E+001      -5.9837903328E+014       0.0000000000E+000       1.0000000000E+000       7.0960089777E-001       7.7828493295E-001       6.6666666667E-002       1.0000000000E-003       1.0000000000E-003       0.0000000000E+000       1.0000000000E+000       0.0000000000E+000       2.7777777778E-003       7.0496511971E-002
       0.0000000000E+000       1.6377017442E-001       0.0000000000E+000       1.9688625613E+001      -5.9837903328E+014       0.0000000000E+000       1.0000000000E+000       7.4113019128E-001       8.3481494362E-001       6.6666666667E-002       1.0000000000E-003       1.0000000000E-003       0.0000000000E+000       1.0000000000E+000       0.0000000000E+000       2.7777777778E-003       7.1485298330E-002
       0.0000000000E+000       1.8366405776E-001       0.0000000000E+000       1.9642430518E+001      -5.9837903328E+014       0.0000000000E+000       1.0000000000E+000       7.7590113806E-001       8.9855849676E-001       6.6666666667E-002       1.0000000000E-003       1.0000000000E-003       0.0000000000E+000       1.0000000000E+000       0.0000000000E+000       2.7777777778E-003       7.2562437645E-002
       0.0000000000E+000       2.0360815989E-001       0.0000000000E+000       1.9591561361E+001      -5.9837903328E+014       0.0000000000E+000       1.0000000000E+000       8.1363687044E-001       9.6944443090E-001       6.6666666667E-002       1.0000000000E-003       1.0000000000E-003       0.0000000000E+000       1.0000000000E+000       0.0000000000E+000       2.7777777778E-003       7.3706682518E-002
       0.0000000000E+000       2.2357768425E-001       0.0000000000E+000       1.9536225795E+001      -5.9837903328E+014       0.0000000000E+000       1.0000000000E+000       8.5405332852E-001       1.0473974304E+000       6.6666666667E-002       1.0000000000E-003       1.0000000000E-003       0.0000000000E+000       1.0000000000E+000       0.0000000000E+000       2.7777777778E-003       7.4895032374E-002
       0.0000000000E+000       2.4354770750E-001       0.0000000000E+000       1.9476639634E+001      -5.9837903328E+014       0.0000000000E+000       1.0000000000E+000       8.9686868627E-001       1.1323491238E+000       6.6666666667E-002       1.0000000000E-003       1.0000000000E-003       0.0000000000E+000       1.0000000000E+000       0.0000000000E+000       2.7777777778E-003       7.6103827856E-002
       0.0000000000E+000       2.6349330387E-001       0.0000000000E+000       1.9413020363E+001      -5.9837903328E+014       0.0000000000E+000       1.0000000000E+000       9.4181075878E-001       1.2242477110E+000       6.6666666667E-002       1.0000000000E-003       1.0000000000E-003       0.0000000000E+000       1.0000000000E+000       0.0000000000E+000       2.7777777778E-003       7.7309681900E-002
       0.0000000000E+000       2.8338966932E-001       0.0000000000E+000       1.9345582129E+001      -5.9837903328E+014       0.0000000000E+000       1.0000000000E+000       9.8862234782E-001       1.3230657725E+000       6.6666666667E-002       1.0000000000E-003       1.0000000000E-003       0.0000000000E+000       1.0000000000E+000       0.0000000000E+000       2.7777777778E-003       7.8490198456E-002
       0.0000000000E+000       3.0321224457E-001       0.0000000000E+000       1.9274532128E+001      -5.9837903328E+014       0.0000000000E+000       1.0000000000E+000       1.0370647196E+000       1.4288062337E+000       6.6666666667E-002       1.0000000000E-003       1.0000000000E-003       0.0000000000E+000       1.0000000000E+000       0.0000000000E+000       2.7777777778E-003       7.9624478170E-002
       0.0000000000E+000       3.2293683551E-001       0.0000000000E+000       1.9200068195E+001      -5.9837903328E+014       0.0000000000E+000       1.0000000000E+000       1.0869195335E+000       1.5415066666E+000       6.6666666667E-002       1.0000000000E-003       1.0000000000E-003       0.0000000000E+000       1.0000000000E+000       0.0000000000E+000       2.7777777778E-003       8.0693438141E-002
       0.0000000000E+000       3.4253972973E-001       0.0000000000E+000       1.9122377354E+001      -5.9837903328E+014       0.0000000000E+000       1.0000000000E+000       1.1379895757E+000       1.6612422303E+000       6.6666666667E-002       1.0000000000E-003       1.0000000000E-003       0.0000000000E+000       1.0000000000E+000       0.0000000000E+000       2.7777777778E-003       8.1679984122E-002
       0.0000000000E+000       3.6199780814E-001       0.0000000000E+000       1.9041635074E+001      -5.9837903328E+014       0.0000000000E+000       1.0000000000E+000       1.1900986302E+000       1.7881275763E+000       6.6666666667E-002       1.0000000000E-003       1.0000000000E-003       0.0000000000E+000       1.0000000000E+000       0.0000000000E+000       2.7777777778E-003       8.2569074005E-002
       0.0000000000E+000       3.8128865043E-001       0.0000000000E+000       1.8958005037E+001      -5.9837903328E+014       0.0000000000E+000       1.0000000000E+000       1.2430907668E+000       1.9223180311E+000       6.6666666667E-002       1.0000000000E-003       1.0000000000E-003       0.0000000000E+000       1.0000000000E+000       0.0000000000E+000       2.7777777778E-003       8.3347706378E-002
       0.0000000000E+000       4.0039063353E-001       0.0000000000E+000       1.8871639223E+001      -5.9837903328E+014       0.0000000000E+000       1.0000000000E+000       1.2968292667E+000       2.0640103252E+000       6.6666666667E-002       1.0000000000E-003       1.0000000000E-003       0.0000000000E+000       1.0000000000E+000       0.0000000000E+000       2.7777777778E-003       8.4004860885E-002
       0.0000000000E+000       4.1928302209E-001       0.0000000000E+000       1.8782678209E+001      -5.9837903328E+014       0.0000000000E+000       1.0000000000E+000       1.3511953482E+000       2.2134430823E+000       6.6666666667E-002       1.0000000000E-003       1.0000000000E-003       0.0000000000E+000       1.0000000000E+000       0.0000000000E+000       2.7777777778E-003       8.4531410097E-002
       0.0000000000E+000       4.3794605030E-001       0.0000000000E+000       1.8691251552E+001      -5.9837903328E+014       0.0000000000E+000       1.0000000000E+000       1.4060868053E+000       2.3708972364E+000       6.6666666667E-002       1.0000000000E-003       1.0000000000E-003       0.0000000000E+000       1.0000000000E+000       0.0000000000E+000       2.7777777778E-003       8.4920016595E-002
       0.0000000000E+000       4.5636099455E-001       0.0000000000E+000       1.8597478234E+001      -5.9837903328E+014       0.0000000000E+000       1.0000000000E+000       1.4614166331E+000       2.5366964958E+000       6.6666666667E-002       1.0000000000E-003       1.0000000000E-003       0.0000000000E+000       1.0000000000E+000       0.0000000000E+000       2.7777777778E-003       8.5165024248E-002
       0.0000000000E+000       4.7451023629E-001       0.0000000000E+000       1.8501467089E+001      -5.9837903328E+014       0.0000000000E+000       1.0000000000E+000       1.5171116886E+000       2.7112079436E+000       6.6666666667E-002       1.0000000000E-003       1.0000000000E-003       0.0000000000E+000       1.0000000000E+000       0.0000000000E+000       2.7777777778E-003       8.5262349176E-002
       0.0000000000E+000       4.9237731502E-001       0.0000000000E+000       1.8403317213E+001      -5.9837903328E+014       0.0000000000E+000       1.0000000000E+000       1.5731114090E+000       2.8948428315E+000       6.6666666667E-002       1.0000000000E-003       1.0000000000E-003       0.0000000000E+000       1.0000000000E+000       0.0000000000E+000       2.7777777778E-003       8.5209373425E-002
       0.0000000000E+000       5.0994697103E-001       0.0000000000E+000       1.8303118332E+001      -5.9837903328E+014       0.0000000000E+000       1.0000000000E+000       1.6293666018E+000       3.0880576106E+000       6.6666666667E-002       1.0000000000E-003       1.0000000000E-003       0.0000000000E+000       1.0000000000E+000       0.0000000000E+000       2.7777777778E-003       8.5004842760E-002
       0.0000000000E+000       5.2720517819E-001       0.0000000000E+000       1.8200951123E+001      -5.9837903328E+014       0.0000000000E+000       1.0000000000E+000       1.6858383087E+000       3.2913552254E+000       6.6666666667E-002       1.0000000000E-003       1.0000000000E-003       0.0000000000E+000       1.0000000000E+000       0.0000000000E+000       2.7777777778E-003       8.4648768887E-002
       0.0000000000E+000       5.4413916653E-001       0.0000000000E+000       1.8096887490E+001      -5.9837903328E+014       0.0000000000E+000       1.0000000000E+000       1.7424967399E+000       3.5052866895E+000       6.6666666667E-002       1.0000000000E-003       1.0000000000E-003       0.0000000000E+000       1.0000000000E+000       0.0000000000E+000       2.7777777778E-003       8.4142335820E-002
       0.0000000000E+000       5.6073743527E-001       0.0000000000E+000       1.7990990803E+001      -5.9837903328E+014       0.0000000000E+000       1.0000000000E+000       1.7993202751E+000       3.7304529592E+000       6.6666666667E-002       1.0000000000E-003       1.0000000000E-003       0.0000000000E+000       1.0000000000E+000       0.0000000000E+000       2.7777777778E-003       8.3487809780E-002
       0.0000000000E+000       5.7698975628E-001       0.0000000000E+000       1.7883316084E+001      -5.9837903328E+014       0.0000000000E+000       1.0000000000E+000       1.8562945216E+000       3.9675071154E+000       6.6666666667E-002       1.0000000000E-003       1.0000000000E-003       0.0000000000E+000       1.0000000000E+000       0.0000000000E+000       2.7777777778E-003       8.2688451854E-002
       0.0000000000E+000       5.9288716879E-001       0.0000000000E+000       1.7773910171E+001      -5.9837903328E+014       0.0000000000E+000       1.0000000000E+000       1.9134114249E+000       4.2171568665E+000       6.6666666667E-002       1.0000000000E-003       1.0000000000E-003       0.0000000000E+000       1.0000000000E+000       0.0000000000E+000       2.7777777778E-003       8.1748432694E-002
       0.0000000000E+000       6.0842196558E-001       0.0000000000E+000       1.7662811838E+001      -5.9837903328E+014       0.0000000000E+000       1.0000000000E+000       1.9706684216E+000       4.4801673840E+000       6.6666666667E-002       1.0000000000E-003       1.0000000000E-003       0.0000000000E+000       1.0000000000E+000       0.0000000000E+000       2.7777777778E-003       8.0672748578E-002
       0.0000000000E+000       6.2358767156E-001       0.0000000000E+000       1.7550051894E+001      -5.9837903328E+014       0.0000000000E+000       1.0000000000E+000       2.0280676290E+000       4.7573644856E+000       6.6666666667E-002       1.0000000000E-003       1.0000000000E-003       0.0000000000E+000       1.0000000000E+000       0.0000000000E+000       2.7777777778E-003       7.9467138333E-002
       0.0000000000E+000       6.3837901513E-001       0.0000000000E+000       1.7435653251E+001      -5.9837903328E+014       0.0000000000E+000       1.0000000000E+000       2.0856150650E+000       5.0496381836E+000       6.6666666667E-002       1.0000000000E-003       1.0000000000E-003       0.0000000000E+000       1.0000000000E+000       0.0000000000E+000       2.7777777778E-003       7.8138000762E-002
       0.0000000000E+000       6.5279189332E-001       0.0000000000E+000       1.7319630964E+001      -5.9837903328E+014       0.0000000000E+000       1.0000000000E+000       2.1433198893E+000       5.3579466162E+000       6.6666666667E-002       1.0000000000E-003       1.0000000000E-003       0.0000000000E+000       1.0000000000E+000       0.0000000000E+000       2.7777777778E-003       7.6692312410E-002
       0.0000000000E+000       6.6682333117E-001       0.0000000000E+000       1.7201992257E+001      -5.9837903328E+014       0.0000000000E+000       1.0000000000E+000       2.2011936628E+000       5.6833203874E+000       6.6666666667E-002       1.0000000000E-003       1.0000000000E-003       0.0000000000E+000       1.0000000000E+000       0.0000000000E+000       2.7777777778E-003       7.5137545671E-002
       0.0000000000E+000       6.8047143635E-001       0.0000000000E+000       1.7082736506E+001      -5.9837903328E+014       0.0000000000E+000       1.0000000000E+000       2.2592496162E+000       6.0268673395E+000       6.6666666667E-002       1.0000000000E-003       1.0000000000E-003       0.0000000000E+000       1.0000000000E+000       0.0000000000E+000       2.7777777778E-003       7.3481587394E-002
       0.0000000000E+000       6.9373534961E-001       0.0000000000E+000       1.6961855210E+001      -5.9837903328E+014       0.0000000000E+000       1.0000000000E+000       2.3175019209E+000       6.3897777911E+000       6.6666666667E-002       1.0000000000E-003       1.0000000000E-003       0.0000000000E+000       1.0000000000E+000       0.0000000000E+000       2.7777777778E-003       7.1732658175E-002
       0.0000000000E+000       7.0661519181E-001       0.0000000000E+000       1.6839331922E+001      -5.9837903328E+014       0.0000000000E+000       1.0000000000E+000       2.3759649215E+000       6.7733302769E+000       6.6666666667E-002       1.0000000000E-003       1.0000000000E-003       0.0000000000E+000       1.0000000000E+000       0.0000000000E+000       2.7777777778E-003       6.9899231078E-002
       0.0000000000E+000       7.1911200840E-001       0.0000000000E+000       1.6715142150E+001      -5.9837903328E+014       0.0000000000E+000       1.0000000000E+000       2.4346524762E+000       7.1788978233E+000       6.6666666667E-002       1.0000000000E-003       1.0000000000E-003       0.0000000000E+000       1.0000000000E+000       0.0000000000E+000       2.7777777778E-003       6.7989958683E-002
       0.0000000000E+000       7.3122771176E-001       0.0000000000E+000       1.6589253222E+001      -5.9837903328E+014       0.0000000000E+000       1.0000000000E+000       2.4935772073E+000       7.6079547860E+000       6.6666666667E-002       1.0000000000E-003       1.0000000000E-003       0.0000000000E+000       1.0000000000E+000       0.0000000000E+000       2.7777777778E-003       6.6013597949E-002
       0.0000000000E+000       7.4296502236E-001       0.0000000000E+000       1.6461624108E+001      -5.9837903328E+014       0.0000000000E+000       1.0000000000E+000       2.5527496580E+000       8.0620843128E+000       6.6666666667E-002       1.0000000000E-003       1.0000000000E-003       0.0000000000E+000       1.0000000000E+000       0.0000000000E+000       2.7777777778E-003       6.3978934761E-002
       0.0000000000E+000       7.5432740911E-001       0.0000000000E+000       1.6332205187E+001      -5.9837903328E+014       0.0000000000E+000       1.0000000000E+000       2.6121773592E+000       8.5429863964E+000       6.6666666667E-002       1.0000000000E-003       1.0000000000E-003       0.0000000000E+000       1.0000000000E+000       0.0000000000E+000       2.7777777778E-003       6.1894711248E-002
       0.0000000000E+000       7.6531902954E-001       0.0000000000E+000       1.6200937961E+001      -5.9837903328E+014       0.0000000000E+000       1.0000000000E+000       2.6718640307E+000       9.0524873332E+000       6.6666666667E-002       1.0000000000E-003       1.0000000000E-003       0.0000000000E+000       1.0000000000E+000       0.0000000000E+000       2.7777777778E-003       5.9769561970E-002
       0.0000000000E+000       7.7594467035E-001       0.0000000000E+000       1.6067754699E+001      -5.9837903328E+014       0.0000000000E+000       1.0000000000E+000       2.7318086636E+000       9.5925483042E+000       6.6666666667E-002       1.0000000000E-003       1.0000000000E-003       0.0000000000E+000       1.0000000000E+000       0.0000000000E+000       2.7777777778E-003       5.7611962593E-002
       0.0000000000E+000       7.8620968872E-001       0.0000000000E+000       1.5932578018E+001      -5.9837903328E+014       0.0000000000E+000       1.0000000000E+000       2.7920044647E+000       1.0165276888E+001       6.6666666667E-002       1.0000000000E-003       1.0000000000E-003       0.0000000000E+000       1.0000000000E+000       0.0000000000E+000       2.7777777778E-003       5.5430167251E-002
       0.0000000000E+000       7.9611995484E-001       0.0000000000E+000       1.5795320365E+001      -5.9837903328E+014       0.0000000000E+000       1.0000000000E+000       2.8524377401E+000       1.0772938089E+001       6.6666666667E-002       1.0000000000E-003       1.0000000000E-003       0.0000000000E+000       1.0000000000E+000       0.0000000000E+000       2.7777777778E-003       5.3232162718E-002
       0.0000000000E+000       8.0568179598E-001       0.0000000000E+000       1.5655883407E+001      -5.9837903328E+014       0.0000000000E+000       1.0000000000E+000       2.9130866289E+000       1.1417966784E+001       6.6666666667E-002       1.0000000000E-003       1.0000000000E-003       0.0000000000E+000       1.0000000000E+000       0.0000000000E+000       2.7777777778E-003       5.1025624282E-002
       0.0000000000E+000       8.1490194236E-001       0.0000000000E+000       1.5514157302E+001      -5.9837903328E+014       0.0000000000E+000       1.0000000000E+000       2.9739196392E+000       1.2102981156E+001       6.6666666667E-002       1.0000000000E-003       1.0000000000E-003       0.0000000000E+000       1.0000000000E+000       0.0000000000E+000       2.7777777778E-003       4.8817876760E-002
       0.0000000000E+000       8.2378747516E-001       0.0000000000E+000       1.5370019841E+001      -5.9837903328E+014       0.0000000000E+000       1.0000000000E+000       3.0348940431E+000       1.2830797193E+001       6.6666666667E-002       1.0000000000E-003       1.0000000000E-003       0.0000000000E+000       1.0000000000E+000       0.0000000000E+000       2.7777777778E-003       4.6615863415E-002
       0.0000000000E+000       8.3234577677E-001       0.0000000000E+000       1.5223335440E+001      -5.9837903328E+014       0.0000000000E+000       1.0000000000E+000       3.0959540503E+000       1.3604444282E+001       6.6666666667E-002       1.0000000000E-003       1.0000000000E-003       0.0000000000E+000       1.0000000000E+000       0.0000000000E+000       2.7777777778E-003       4.4426121223E-002
       0.0000000000E+000       8.4058448357E-001       0.0000000000E+000       1.5073953955E+001      -5.9837903328E+014       0.0000000000E+000       1.0000000000E+000       3.1570287013E+000       1.4427181863E+001       6.6666666667E-002       1.0000000000E-003       1.0000000000E-003       0.0000000000E+000       1.0000000000E+000       0.0000000000E+000       2.7777777778E-003       4.2254761938E-002
       0.0000000000E+000       8.4851144115E-001       0.0000000000E+000       1.4921709291E+001      -5.9837903328E+014       0.0000000000E+000       1.0000000000E+000       3.2180294336E+000       1.5302517056E+001       6.6666666667E-002       1.0000000000E-003       1.0000000000E-003       0.0000000000E+000       1.0000000000E+000       0.0000000000E+000       2.7777777778E-003       4.0107459233E-002
       0.0000000000E+000       8.5613466229E-001       0.0000000000E+000       1.4766417781E+001      -5.9837903328E+014       0.0000000000E+000       1.0000000000E+000       3.2788472567E+000       1.6234223074E+001       6.6666666667E-002       1.0000000000E-003       1.0000000000E-003       0.0000000000E+000       1.0000000000E+000       0.0000000000E+000       2.7777777778E-003       3.7989441737E-002
       0.0000000000E+000       8.6346228758E-001       0.0000000000E+000       1.4607876283E+001      -5.9837903328E+014       0.0000000000E+000       1.0000000000E+000       3.3393494559E+000       1.7226358051E+001       6.6666666667E-002       1.0000000000E-003       1.0000000000E-003       0.0000000000E+000       1.0000000000E+000       0.0000000000E+000       2.7777777778E-003       3.5905491758E-002
       0.0000000000E+000       8.7050254873E-001       0.0000000000E+000       1.4445859962E+001      -5.9837903328E+014       0.0000000000E+000       1.0000000000E+000       3.3993757310E+000       1.8283283675E+001       6.6666666667E-002       1.0000000000E-003       1.0000000000E-003       0.0000000000E+000       1.0000000000E+000       0.0000000000E+000       2.7777777778E-003       3.3859949428E-002
       0.0000000000E+000       8.7726373460E-001       0.0000000000E+000       1.4280119697E+001      -5.9837903328E+014       0.0000000000E+000       1.0000000000E+000       3.4587336541E+000       1.9409682632E+001       6.6666666667E-002       1.0000000000E-003       1.0000000000E-003       0.0000000000E+000       1.0000000000E+000       0.0000000000E+000       2.7777777778E-003       3.1856722024E-002
       0.0000000000E+000       8.8375415988E-001       0.0000000000E+000       1.4110379052E+001      -5.9837903328E+014       0.0000000000E+000       1.0000000000E+000       3.5171933112E+000       2.0610573318E+001       6.6666666667E-002       1.0000000000E-003       1.0000000000E-003       0.0000000000E+000       1.0000000000E+000       0.0000000000E+000       2.7777777778E-003       2.9899298156E-002
       0.0000000000E+000       8.8998213639E-001       0.0000000000E+000       1.3936330749E+001      -5.9837903328E+014       0.0000000000E+000       1.0000000000E+000       3.5744809604E+000       2.1891319453E+001       6.6666666667E-002       1.0000000000E-003       1.0000000000E-003       0.0000000000E+000       1.0000000000E+000       0.0000000000E+000       2.7777777778E-003       2.7990766523E-002
       0.0000000000E+000       8.9595594686E-001       0.0000000000E+000       1.3757632543E+001      -5.9837903328E+014       0.0000000000E+000       1.0000000000E+000       3.6302715106E+000       2.3257631058E+001       6.6666666667E-002       1.0000000000E-003       1.0000000000E-003       0.0000000000E+000       1.0000000000E+000       0.0000000000E+000       2.7777777778E-003       2.6133838897E-002
       0.0000000000E+000       9.0168382125E-001       0.0000000000E+000       1.3573902414E+001      -5.9837903328E+014       0.0000000000E+000       1.0000000000E+000       3.6841795870E+000       2.4715551592E+001       6.6666666667E-002       1.0000000000E-003       1.0000000000E-003       0.0000000000E+000       1.0000000000E+000       0.0000000000E+000       2.7777777778E-003       2.4330876971E-002
       0.0000000000E+000       9.0717391533E-001       0.0000000000E+000       1.3384712976E+001      -5.9837903328E+014       0.0000000000E+000       1.0000000000E+000       3.7357489074E+000       2.6271423683E+001       6.6666666667E-002       1.0000000000E-003       1.0000000000E-003       0.0000000000E+000       1.0000000000E+000       0.0000000000E+000       2.7777777778E-003       2.2583922652E-002
       0.0000000000E+000       9.1243429153E-001       0.0000000000E+000       1.3189584961E+001      -5.9837903328E+014       0.0000000000E+000       1.0000000000E+000       3.7844396575E+000       2.7931822556E+001       6.6666666667E-002       1.0000000000E-003       1.0000000000E-003       0.0000000000E+000       1.0000000000E+000       0.0000000000E+000       2.7777777778E-003       2.0894731361E-002
       0.0000000000E+000       9.1747290199E-001       0.0000000000E+000       1.2987979676E+001      -5.9837903328E+014       0.0000000000E+000       1.0000000000E+000       3.8296135134E+000       2.9703441736E+001       6.6666666667E-002       1.0000000000E-003       1.0000000000E-003       0.0000000000E+000       1.0000000000E+000       0.0000000000E+000       2.7777777778E-003       1.9264807784E-002
       0.0000000000E+000       9.2229757354E-001       0.0000000000E+000       1.2779290280E+001      -5.9837903328E+014       0.0000000000E+000       1.0000000000E+000       3.8705159411E+000       3.1592909267E+001       6.6666666667E-002       1.0000000000E-003       1.0000000000E-003       0.0000000000E+000       1.0000000000E+000       0.0000000000E+000       2.7777777778E-003       1.7695443520E-002
       0.0000000000E+000       9.2691599462E-001       0.0000000000E+000       1.2562831766E+001      -5.9837903328E+014       0.0000000000E+000       1.0000000000E+000       3.9062554170E+000       3.3606504264E+001       6.6666666667E-002       1.0000000000E-003       1.0000000000E-003       0.0000000000E+000       1.0000000000E+000       0.0000000000E+000       2.7777777778E-003       1.6187755958E-002
       0.0000000000E+000       9.3133570398E-001       0.0000000000E+000       1.2337829548E+001      -5.9837903328E+014       0.0000000000E+000       1.0000000000E+000       3.9357792922E+000       3.5749732342E+001       6.6666666667E-002       1.0000000000E-003       1.0000000000E-003       0.0000000000E+000       1.0000000000E+000       0.0000000000E+000       2.7777777778E-003       1.4742727700E-002
       0.0000000000E+000       9.3556408104E-001       0.0000000000E+000       1.2103406625E+001      -5.9837903328E+014       0.0000000000E+000       1.0000000000E+000       3.9578462218E+000       3.8026703929E+001       6.6666666667E-002       1.0000000000E-003       1.0000000000E-003       0.0000000000E+000       1.0000000000E+000       0.0000000000E+000       2.7777777778E-003       1.3361245792E-002
       0.0000000000E+000       9.3960833779E-001       0.0000000000E+000       1.1858569417E+001      -5.9837903328E+014       0.0000000000E+000       1.0000000000E+000       3.9709954890E+000       4.0439241464E+001       6.6666666667E-002       1.0000000000E-003       1.0000000000E-003       0.0000000000E+000       1.0000000000E+000       0.0000000000E+000       2.7777777778E-003       1.2044140051E-002
       0.0000000000E+000       9.4347551212E-001       0.0000000000E+000       1.1602192607E+001      -5.9837903328E+014       0.0000000000E+000       1.0000000000E+000       3.9735143034E+000       4.2985620571E+001       6.6666666667E-002       1.0000000000E-003       1.0000000000E-003       0.0000000000E+000       1.0000000000E+000       0.0000000000E+000       2.7777777778E-003       1.0792219743E-002