 VARIABLES ="X","Y","U","W","P","C","T","k","eps", "v2","omega","nuSA","yplus","RHO","Pe","mu","mut"
 ZONE I=            98  J=            40  F=POINT 
       0.0000000000E+000      -1.0100607860E-003       0.0000000000E+000       6.2939208023E+001      -1.3910361204E+016       0.0000000000E+000       1.0000000000E+000       7.0159509028E+000       2.8131093392E+001       6.6666666667E-002       1.0000000000E-003       1.0000000000E-003       0.0000000000E+000       1.0000000000E+000       0.0000000000E+000       2.7777777778E-003       1.7913243913E-001
       0.0000000000E+000       1.0100607860E-003       0.0000000000E+000       6.2939208023E+001      -1.3910361204E+016       0.0000000000E+000       1.0000000000E+000       7.0159509028E+000       2.8131093392E+001       6.6666666667E-002       1.0000000000E-003       1.0000000000E-003       0.0000000000E+000       1.0000000000E+000       0.0000000000E+000       2.7777777778E-003       1.7913243913E-001
       0.0000000000E+000       3.1294375279E-003       0.0000000000E+000       6.2921080665E+001      -1.3910361204E+016       0.0000000000E+000       1.0000000000E+000       7.0671755319E+000       2.8458439937E+001       6.6666666667E-002       1.0000000000E-003       1.0000000000E-003       0.0000000000E+000       1.0000000000E+000       0.0000000000E+000       2.7777777778E-003       1.7963488109E-001
       0.0000000000E+000       5.4568238521E-003       0.0000000000E+000       6.2884302928E+001      -1.3910361204E+016       0.0000000000E+000       1.0000000000E+000       7.1710237923E+000       2.9125617234E+001       6.6666666667E-002       1.0000000000E-003       1.0000000000E-003       0.0000000000E+000       1.0000000000E+000       0.0000000000E+000       2.7777777778E-003       1.8065122079E-001
       0.0000000000E+000       8.0120745591E-003       0.0000000000E+000       6.2828591119E+001      -1.3910361204E+016       0.0000000000E+000       1.0000000000E+000       7.3278945278E+000       3.0141529955E+001       6.6666666667E-002       1.0000000000E-003       1.0000000000E-003       0.0000000000E+000       1.0000000000E+000       0.0000000000E+000       2.7777777778E-003       1.8218532194E-001
       0.0000000000E+000       1.0816823264E-002       0.0000000000E+000       6.2753907361E+001      -1.3910361204E+016       0.0000000000E+000       1.0000000000E+000       7.5370401266E+000       3.1510686573E+001       6.6666666667E-002       1.0000000000E-003       1.0000000000E-003       0.0000000000E+000       1.0000000000E+000       0.0000000000E+000       2.7777777778E-003       1.8422881416E-001
       0.0000000000E+000       1.3894617523E-002       0.0000000000E+000       6.2660451206E+001      -1.3910361204E+016       0.0000000000E+000       1.0000000000E+000       7.7966532038E+000       3.3233476226E+001       6.6666666667E-002       1.0000000000E-003       1.0000000000E-003       0.0000000000E+000       1.0000000000E+000       0.0000000000E+000       2.7777777778E-003       1.8675912107E-001
       0.0000000000E+000       1.7271059037E-002       0.0000000000E+000       6.2548637076E+001      -1.3910361204E+016       0.0000000000E+000       1.0000000000E+000       8.1040149590E+000       3.5306684745E+001       6.6666666667E-002       1.0000000000E-003       1.0000000000E-003       0.0000000000E+000       1.0000000000E+000       0.0000000000E+000       2.7777777778E-003       1.8973847314E-001
       0.0000000000E+000       2.0973947879E-002       0.0000000000E+000       6.2419060037E+001      -1.3910361204E+016       0.0000000000E+000       1.0000000000E+000       8.4556907282E+000       3.7724216207E+001       6.6666666667E-002       1.0000000000E-003       1.0000000000E-003       0.0000000000E+000       1.0000000000E+000       0.0000000000E+000       2.7777777778E-003       1.9311465799E-001
       0.0000000000E+000       2.5033429320E-002       0.0000000000E+000       6.2272454307E+001      -1.3910361204E+016       0.0000000000E+000       1.0000000000E+000       8.8477476865E+000       4.0477948017E+001       6.6666666667E-002       1.0000000000E-003       1.0000000000E-003       0.0000000000E+000       1.0000000000E+000       0.0000000000E+000       2.7777777778E-003       1.9682344218E-001
       0.0000000000E+000       2.9482141392E-002       0.0000000000E+000       6.2109649769E+001      -1.3910361204E+016       0.0000000000E+000       1.0000000000E+000       9.2759696300E+000       4.3558625509E+001       6.6666666667E-002       1.0000000000E-003       1.0000000000E-003       0.0000000000E+000       1.0000000000E+000       0.0000000000E+000       2.7777777778E-003       2.0079213444E-001
       0.0000000000E+000       3.4355360827E-002       0.0000000000E+000       6.1931531253E+001      -1.3910361204E+016       0.0000000000E+000       1.0000000000E+000       9.7360482010E+000       4.6956705052E+001       6.6666666667E-002       1.0000000000E-003       1.0000000000E-003       0.0000000000E+000       1.0000000000E+000       0.0000000000E+000       2.7777777778E-003       2.0494355603E-001
       0.0000000000E+000       3.9691144380E-002       0.0000000000E+000       6.1739003887E+001      -1.3910361204E+016       0.0000000000E+000       1.0000000000E+000       1.0223737833E+001       5.0663078096E+001       6.6666666667E-002       1.0000000000E-003       1.0000000000E-003       0.0000000000E+000       1.0000000000E+000       0.0000000000E+000       2.7777777778E-003       2.0919977422E-001
       0.0000000000E+000       4.5530461881E-002       0.0000000000E+000       6.1532966145E+001      -1.3910361204E+016       0.0000000000E+000       1.0000000000E+000       1.0734969978E+001       5.4669640765E+001       6.6666666667E-002       1.0000000000E-003       1.0000000000E-003       0.0000000000E+000       1.0000000000E+000       0.0000000000E+000       2.7777777778E-003       2.1348519155E-001
       0.0000000000E+000       5.1917316536E-002       0.0000000000E+000       6.1314290661E+001      -1.3910361204E+016       0.0000000000E+000       1.0000000000E+000       1.1265928675E+001       5.8969703309E+001       6.6666666667E-002       1.0000000000E-003       1.0000000000E-003       0.0000000000E+000       1.0000000000E+000       0.0000000000E+000       2.7777777778E-003       2.1772883059E-001
       0.0000000000E+000       5.8898847137E-002       0.0000000000E+000       6.1083811943E+001      -1.3910361204E+016       0.0000000000E+000       1.0000000000E+000       1.1813093439E+001       6.3558252492E+001       6.6666666667E-002       1.0000000000E-003       1.0000000000E-003       0.0000000000E+000       1.0000000000E+000       0.0000000000E+000       2.7777777778E-003       2.2186584339E-001
       0.0000000000E+000       6.6525405813E-002       0.0000000000E+000       6.0842319630E+001      -1.3910361204E+016       0.0000000000E+000       1.0000000000E+000       1.2373256950E+001       6.8432102568E+001       6.6666666667E-002       1.0000000000E-003       1.0000000000E-003       0.0000000000E+000       1.0000000000E+000       0.0000000000E+000       2.7777777778E-003       2.2583833380E-001
       0.0000000000E+000       7.4850603903E-002       0.0000000000E+000       6.0590555891E+001      -1.3910361204E+016       0.0000000000E+000       1.0000000000E+000       1.2943524972E+001       7.3589980081E+001       6.6666666667E-002       1.0000000000E-003       1.0000000000E-003       0.0000000000E+000       1.0000000000E+000       0.0000000000E+000       2.7777777778E-003       2.2959561820E-001
       0.0000000000E+000       8.3931317363E-002       0.0000000000E+000       6.0329215676E+001      -1.3910361204E+016       0.0000000000E+000       1.0000000000E+000       1.3521304473E+001       7.9032468549E+001       6.6666666667E-002       1.0000000000E-003       1.0000000000E-003       0.0000000000E+000       1.0000000000E+000       0.0000000000E+000       2.7777777778E-003       2.3309436739E-001
       0.0000000000E+000       9.3827641929E-002       0.0000000000E+000       6.0058948774E+001      -1.3910361204E+016       0.0000000000E+000       1.0000000000E+000       1.4104282898E+001       8.4761950543E+001       6.6666666667E-002       1.0000000000E-003       1.0000000000E-003       0.0000000000E+000       1.0000000000E+000       0.0000000000E+000       2.7777777778E-003       2.3629829592E-001
       0.0000000000E+000       1.0460278706E-001       0.0000000000E+000       5.9780362808E+001      -1.3910361204E+016       0.0000000000E+000       1.0000000000E+000       1.4690412991E+001       9.0782624426E+001       6.6666666667E-002       1.0000000000E-003       1.0000000000E-003       0.0000000000E+000       1.0000000000E+000       0.0000000000E+000       2.7777777778E-003       2.3917775081E-001
