 VARIABLES ="X","Y","U","W","C","T","k","eps","v2","omega","nuSA","yplus","RHO","Pe","mu",               "mut","lamcp","cp","alphat","kt","epst","Pk","Gk", Mktau 
 ZONE I=            98  J=           104  F=POINT 
       0.0000000000E+000      -4.6333968368E-003       0.0000000000E+000       1.8410028603E+001       0.0000000000E+000       9.9999999878E-001       9.4202447771E-001       2.1519780308E+000       6.6666666667E-002       1.0000000000E-003       1.0000000000E-003       0.0000000000E+000       1.0000000000E+000       0.0000000000E+000       2.7777777791E-003       4.3894819913E-002       8.6953103861E-004       1.0000000035E+000       1.7154941393E-001       1.2619730360E-005       3.1745764890E-006       0.0000000000E+000       0.0000000000E+000       0.0000000000E+000
       0.0000000000E+000       4.6333968368E-003       0.0000000000E+000       1.8410028603E+001       0.0000000000E+000       9.9999999878E-001       9.4202447771E-001       2.1519780308E+000       6.6666666667E-002       1.0000000000E-003       1.0000000000E-003       0.0000000000E+000       1.0000000000E+000       0.0000000000E+000       2.7777777791E-003       4.3894819913E-002       8.6953103861E-004       1.0000000035E+000       1.7154941393E-001       1.2619730360E-005       3.1745764890E-006       1.7585043382E-003       0.0000000000E+000       0.0000000000E+000
       0.0000000000E+000       1.3960125430E-002       0.0000000000E+000       1.8406319025E+001       0.0000000000E+000       9.9999999878E-001       9.4475104922E-001       2.1624513810E+000       6.6666666667E-002       1.0000000000E-003       1.0000000000E-003       0.0000000000E+000       1.0000000000E+000       0.0000000000E+000       2.7777777791E-003       4.3747680672E-002       8.6953103861E-004       1.0000000035E+000       1.7096186570E-001       1.2621054276E-005       3.1747871522E-006       1.5823950772E-002       0.0000000000E+000       0.0000000000E+000
       0.0000000000E+000       2.3401918894E-002       0.0000000000E+000       1.8398737895E+001       0.0000000000E+000       9.9999999878E-001       9.5031585891E-001       2.1838825131E+000       6.6666666667E-002       1.0000000000E-003       1.0000000000E-003       0.0000000000E+000       1.0000000000E+000       0.0000000000E+000       2.7777777791E-003       4.3626026269E-002       8.6953103861E-004       1.0000000035E+000       1.7070471070E-001       1.2623764231E-005       3.1752781891E-006       4.4469896331E-002       0.0000000000E+000       0.0000000000E+000
       0.0000000000E+000       3.2948914513E-002       0.0000000000E+000       1.8387142357E+001       0.0000000000E+000       9.9999999878E-001       9.5880890730E-001       2.2167348094E+000       6.6666666667E-002       1.0000000000E-003       1.0000000000E-003       0.0000000000E+000       1.0000000000E+000       0.0000000000E+000       2.7777777791E-003       4.3529712809E-002       8.6953103861E-004       1.0000000035E+000       1.7078375871E-001       1.2627907008E-005       3.1761196908E-006       8.8234795102E-002       0.0000000000E+000       0.0000000000E+000
       0.0000000000E+000       4.2590763245E-002       0.0000000000E+000       1.8371410666E+001       0.0000000000E+000       9.9999999878E-001       9.7029642244E-001       2.2614480469E+000       6.6666666667E-002       1.0000000000E-003       1.0000000000E-003       0.0000000000E+000       1.0000000000E+000       0.0000000000E+000       2.7777777791E-003       4.3458055036E-002       8.6953103861E-004       1.0000000035E+000       1.7119992414E-001       1.2633511758E-005       3.1773741450E-006       1.4755971167E-001       0.0000000000E+000       0.0000000000E+000
       0.0000000000E+000       5.2316670463E-002       0.0000000000E+000       1.8351443736E+001       0.0000000000E+000       9.9999999878E-001       9.8481942349E-001       2.3184365667E+000       6.6666666667E-002       1.0000000000E-003       1.0000000000E-003       0.0000000000E+000       1.0000000000E+000       0.0000000000E+000       2.7777777791E-003       4.3409763680E-002       8.6953103861E-004       1.0000000035E+000       1.7194891684E-001       1.2640589223E-005       3.1790953479E-006       2.2278504882E-001       0.0000000000E+000       0.0000000000E+000
       0.0000000000E+000       6.2115441043E-002       0.0000000000E+000       1.8327166118E+001       0.0000000000E+000       9.9999999878E-001       1.0023930355E+000       2.3880882852E+000       6.6666666667E-002       1.0000000000E-003       1.0000000000E-003       0.0000000000E+000       1.0000000000E+000       0.0000000000E+000       2.7777777791E-003       4.3382891303E-002       8.6953103861E-004       1.0000000035E+000       1.7302110779E-001       1.2649131608E-005       3.1813274732E-006       3.1415174617E-001       0.0000000000E+000       0.0000000000E+000
       0.0000000000E+000       7.1975528421E-002       0.0000000000E+000       1.8298526385E+001       0.0000000000E+000       9.9999999878E-001       1.0230066117E+000       2.4707647582E+000       6.6666666667E-002       1.0000000000E-003       1.0000000000E-003       0.0000000000E+000       1.0000000000E+000       0.0000000000E+000       2.7777777791E-003       4.3374796416E-002       8.6953103861E-004       1.0000000035E+000       1.7440157670E-001       1.2659113099E-005       3.1841045792E-006       4.2180728862E-001       0.0000000000E+000       0.0000000000E+000
       0.0000000000E+000       8.1885087210E-002       0.0000000000E+000       1.8265496851E+001       0.0000000000E+000       9.9999999878E-001       1.0466246668E+000       2.5668024736E+000       6.6666666667E-002       1.0000000000E-003       1.0000000000E-003       0.0000000000E+000       1.0000000000E+000       0.0000000000E+000       2.7777777791E-003       4.3382135058E-002       8.6953103861E-004       1.0000000035E+000       1.7607034738E-001       1.2670490963E-005       3.1874503454E-006       5.4581648566E-001       0.0000000000E+000       0.0000000000E+000
       0.0000000000E+000       9.1832028879E-002       0.0000000000E+000       1.8228072667E+001       0.0000000000E+000       9.9999999878E-001       1.0731885688E+000       2.6765154836E+000       6.6666666667E-002       1.0000000000E-003       1.0000000000E-003       0.0000000000E+000       1.0000000000E+000       0.0000000000E+000       2.7777777791E-003       4.3400886291E-002       8.6953103861E-004       1.0000000035E+000       1.7800279426E-001       1.2683207148E-005       3.1913781152E-006       6.8617655085E-001       0.0000000000E+000       0.0000000000E+000
       0.0000000000E+000       1.0180407995E-001       0.0000000000E+000       1.8186270323E+001       0.0000000000E+000       9.9999999878E-001       1.1026188803E+000       2.8001993846E+000       6.6666666667E-002       1.0000000000E-003       1.0000000000E-003       0.0000000000E+000       1.0000000000E+000       0.0000000000E+000       2.7777777791E-003       4.3426413863E-002       8.6953103861E-004       1.0000000035E+000       1.8017019230E-001       1.2697190232E-005       3.1958912219E-006       8.4283560564E-001       0.0000000000E+000       0.0000000000E+000
       0.0000000000E+000       1.1178884212E-001       0.0000000000E+000       1.8140125666E+001       0.0000000000E+000       9.9999999878E-001       1.1348181995E+000       2.9381365537E+000       6.6666666667E-002       1.0000000000E-003       1.0000000000E-003       0.0000000000E+000       1.0000000000E+000       0.0000000000E+000       2.7777777791E-003       4.3453561695E-002       8.6953103861E-004       1.0000000035E+000       1.8254037364E-001       1.2712357592E-005       3.2009835568E-006       1.0157134346E+000       0.0000000000E+000       0.0000000000E+000
       0.0000000000E+000       1.2177385375E-001       0.0000000000E+000       1.8089691544E+001       0.0000000000E+000       9.9999999878E-001       1.1696743233E+000       3.0906024474E+000       6.6666666667E-002       1.0000000000E-003       1.0000000000E-003       0.0000000000E+000       1.0000000000E+000       0.0000000000E+000       2.7777777791E-003       4.3476776803E-002       8.6953103861E-004       1.0000000035E+000       1.8507844876E-001       1.2728617636E-005       3.2066403252E-006       1.2047231868E+000       0.0000000000E+000       0.0000000000E+000
       0.0000000000E+000       1.3174665193E-001       0.0000000000E+000       1.8035035215E+001       0.0000000000E+000       9.9999999878E-001       1.2070635475E+000       3.2578727002E+000       6.6666666667E-002       1.0000000000E-003       1.0000000000E-003       0.0000000000E+000       1.0000000000E+000       0.0000000000E+000       2.7777777791E-003       4.3490250673E-002       8.6953103861E-004       1.0000000035E+000       1.8774755051E-001       1.2745871983E-005       3.2128389308E-006       1.4097927661E+000       0.0000000000E+000       0.0000000000E+000
       0.0000000000E+000       1.4169483466E-001       0.0000000000E+000       1.7976235650E+001       0.0000000000E+000       9.9999999878E-001       1.2468539300E+000       3.4402307236E+000       6.6666666667E-002       1.0000000000E-003       1.0000000000E-003       0.0000000000E+000       1.0000000000E+000       0.0000000000E+000       2.7777777791E-003       4.3488069036E-002       8.6953103861E-004       1.0000000035E+000       1.9050956323E-001       1.2764017500E-005       3.2195499336E-006       1.6308848576E+000       0.0000000000E+000       0.0000000000E+000
       0.0000000000E+000       1.5160612229E-001       0.0000000000E+000       1.7913380861E+001       0.0000000000E+000       9.9999999878E-001       1.2889083721E+000       3.6379755038E+000       6.6666666667E-002       1.0000000000E-003       1.0000000000E-003       0.0000000000E+000       1.0000000000E+000       0.0000000000E+000       2.7777777791E-003       4.3464360526E-002       8.6953103861E-004       1.0000000035E+000       1.9332580648E-001       1.2782948114E-005       3.2267380290E-006       1.8680148393E+000       0.0000000000E+000       0.0000000000E+000
       0.0000000000E+000       1.6146841776E-001       0.0000000000E+000       1.7846565342E+001       0.0000000000E+000       9.9999999878E-001       1.3330874025E+000       3.8514293289E+000       6.6666666667E-002       1.0000000000E-003       1.0000000000E-003       0.0000000000E+000       1.0000000000E+000       0.0000000000E+000       2.7777777791E-003       4.3413436188E-002       8.6953103861E-004       1.0000000035E+000       1.9615765175E-001       1.2802556381E-005       3.2343630084E-006       2.1212661675E+000       0.0000000000E+000       0.0000000000E+000
       0.0000000000E+000       1.7126986487E-001       0.0000000000E+000       1.7775887700E+001       0.0000000000E+000       9.9999999878E-001       1.3792515903E+000       4.0809452275E+000       6.6666666667E-002       1.0000000000E-003       1.0000000000E-003       0.0000000000E+000       1.0000000000E+000       0.0000000000E+000       2.7777777791E-003       4.3329913967E-002       8.6953103861E-004       1.0000000035E+000       1.9896705921E-001       1.2822734791E-005       3.2423806715E-006       2.3908031378E+000       0.0000000000E+000       0.0000000000E+000
       0.0000000000E+000       1.8099890407E-001       0.0000000000E+000       1.7701448522E+001       0.0000000000E+000       9.9999999878E-001       1.4272635473E+000       4.3269139610E+000       6.6666666667E-002       1.0000000000E-003       1.0000000000E-003       0.0000000000E+000       1.0000000000E+000       0.0000000000E+000       2.7777777791E-003       4.3208824456E-002       8.6953103861E-004       1.0000000035E+000       2.0171702953E-001       1.2843376823E-005       3.2507436700E-006       2.6768811811E+000       0.0000000000E+000       0.0000000000E+000
       0.0000000000E+000       1.9064432522E-001       0.0000000000E+000       1.7623348503E+001       0.0000000000E+000       9.9999999878E-001       1.4769895110E+000       4.5897704779E+000       6.6666666667E-002       1.0000000000E-003       1.0000000000E-003       0.0000000000E+000       1.0000000000E+000       0.0000000000E+000       2.7777777791E-003       4.3045696221E-002       8.6953103861E-004       1.0000000035E+000       2.0437197216E-001       1.2864377765E-005       3.2594022732E-006       2.9798550260E+000       0.0000000000E+000       0.0000000000E+000
       0.0000000000E+000       2.0019531677E-001       0.0000000000E+000       1.7541686825E+001       0.0000000000E+000       9.9999999878E-001       1.5283005224E+000       4.8699997895E+000       6.6666666667E-002       1.0000000000E-003       1.0000000000E-003       0.0000000000E+000       1.0000000000E+000       0.0000000000E+000       2.7777777791E-003       4.2836620558E-002       8.6953103861E-004       1.0000000035E+000       2.0689799594E-001       1.2885635341E-005       3.2683050507E-006       3.3001851609E+000       0.0000000000E+000       0.0000000000E+000
       0.0000000000E+000       2.0964151104E-001       0.0000000000E+000       1.7456559793E+001       0.0000000000E+000       9.9999999878E-001       1.5810732281E+000       5.1681422781E+000       6.6666666667E-002       1.0000000000E-003       1.0000000000E-003       0.0000000000E+000       1.0000000000E+000       0.0000000000E+000       2.7777777791E-003       4.2578296702E-002       8.6953103861E-004       1.0000000035E+000       2.0926313036E-001       1.2907050113E-005       3.2773994750E-006       3.6384430589E+000       0.0000000000E+000       0.0000000000E+000
       0.0000000000E+000       2.1897302515E-001       0.0000000000E+000       1.7368059692E+001       0.0000000000E+000       9.9999999878E-001       1.6351903490E+000       5.4847984760E+000       6.6666666667E-002       1.0000000000E-003       1.0000000000E-003       0.0000000000E+000       1.0000000000E+000       0.0000000000E+000       2.7777777791E-003       4.2268059198E-002       8.6953103861E-004       1.0000000035E+000       2.1143748134E-001       1.2928524939E-005       3.2866324490E-006       3.9953156175E+000       0.0000000000E+000       0.0000000000E+000
       0.0000000000E+000       2.2818049727E-001       0.0000000000E+000       1.7276273851E+001       0.0000000000E+000       9.9999999878E-001       1.6905408563E+000       5.8206333815E+000       6.6666666667E-002       1.0000000000E-003       1.0000000000E-003       0.0000000000E+000       1.0000000000E+000       0.0000000000E+000       2.7777777791E-003       4.1903889516E-002       8.6953103861E-004       1.0000000035E+000       2.1339335376E-001       1.2949966227E-005       3.2959507654E-006       4.3716092182E+000       0.0000000000E+000       0.0000000000E+000
       0.0000000000E+000       2.3725511815E-001       0.0000000000E+000       1.7181283868E+001       0.0000000000E+000       9.9999999878E-001       1.7470199013E+000       6.1763803843E+000       6.6666666667E-002       1.0000000000E-003       1.0000000000E-003       0.0000000000E+000       1.0000000000E+000       0.0000000000E+000       2.7777777791E-003       4.1484414101E-002       8.6953103861E-004       1.0000000035E+000       2.1510532680E-001       1.2971284035E-005       3.3053015049E-006       4.7682537562E+000       0.0000000000E+000       0.0000000000E+000
       0.0000000000E+000       2.4618865751E-001       0.0000000000E+000       1.7083164987E+001       0.0000000000E+000       9.9999999878E-001       1.8045285374E+000       6.5528448810E+000       6.6666666667E-002       1.0000000000E-003       1.0000000000E-003       0.0000000000E+000       1.0000000000E+000       0.0000000000E+000       2.7777777791E-003       4.1008891008E-002       8.6953103861E-004       1.0000000035E+000       2.1655029899E-001       1.2992392100E-005       3.3146323828E-006       5.1863069273E+000       0.0000000000E+000       0.0000000000E+000
       0.0000000000E+000       2.5497348552E-001       0.0000000000E+000       1.6981985587E+001       0.0000000000E+000       9.9999999878E-001       1.8629732724E+000       6.9509076551E+000       6.6666666667E-002       1.0000000000E-003       1.0000000000E-003       0.0000000000E+000       1.0000000000E+000       0.0000000000E+000       2.7777777791E-003       4.0477187086E-002       8.6953103861E-004       1.0000000035E+000       2.1770751043E-001       1.3013207826E-005       3.3238920490E-006       5.6269590040E+000       0.0000000000E+000       0.0000000000E+000
       0.0000000000E+000       2.6360258909E-001       0.0000000000E+000       1.6877806764E+001       0.0000000000E+000       9.9999999878E-001       1.9222654802E+000       7.3715280908E+000       6.6666666667E-002       1.0000000000E-003       1.0000000000E-003       0.0000000000E+000       1.0000000000E+000       0.0000000000E+000       2.7777777791E-003       3.9889747529E-002       8.6953103861E-004       1.0000000035E+000       2.1855854079E-001       1.3033651362E-005       3.3330303502E-006       6.0915382843E+000       0.0000000000E+000       0.0000000000E+000
       0.0000000000E+000       2.7206958327E-001       0.0000000000E+000       1.6770681980E+001       0.0000000000E+000       9.9999999878E-001       1.9823206976E+000       7.8157472810E+000       6.6666666667E-002       1.0000000000E-003       1.0000000000E-003       0.0000000000E+000       1.0000000000E+000       0.0000000000E+000       2.7777777791E-003       3.9247559352E-002       8.6953103861E-004       1.0000000035E+000       2.1908730749E-001       1.3053646142E-005       3.3419985598E-006       6.5815173560E+000       0.0000000000E+000       0.0000000000E+000
       0.0000000000E+000       2.8036871763E-001       0.0000000000E+000       1.6660656768E+001       0.0000000000E+000       9.9999999878E-001       2.0430578254E+000       8.2846910761E+000       6.6666666667E-002       1.0000000000E-003       1.0000000000E-003       0.0000000000E+000       1.0000000000E+000       0.0000000000E+000       2.7777777791E-003       3.8552110194E-002       8.6953103861E-004       1.0000000035E+000       2.1928005301E-001       1.3073119151E-005       3.3507495778E-006       7.0985202922E+000       0.0000000000E+000       0.0000000000E+000
       0.0000000000E+000       2.8849487814E-001       0.0000000000E+000       1.6547768461E+001       0.0000000000E+000       9.9999999878E-001       2.1043982486E+000       8.7795731110E+000       6.6666666667E-002       1.0000000000E-003       1.0000000000E-003       0.0000000000E+000       1.0000000000E+000       0.0000000000E+000       2.7777777791E-003       3.7805343650E-002       8.6953103861E-004       1.0000000035E+000       2.1912532240E-001       1.3092000800E-005       3.3592381088E-006       7.6443308694E+000       0.0000000000E+000       0.0000000000E+000
       0.0000000000E+000       2.9644358439E-001       0.0000000000E+000       1.6432045950E+001       0.0000000000E+000       9.9999999878E-001       2.1662648846E+000       9.3016978333E+000       6.6666666667E-002       1.0000000000E-003       1.0000000000E-003       0.0000000000E+000       1.0000000000E+000       0.0000000000E+000       2.7777777791E-003       3.7009612197E-002       8.6953103861E-004       1.0000000035E+000       2.1861393576E-001       1.3110224769E-005       3.3674208181E-006       8.2209018841E+000       0.0000000000E+000       0.0000000000E+000
       0.0000000000E+000       3.0421098279E-001       0.0000000000E+000       1.6313509444E+001       0.0000000000E+000       9.9999999878E-001       2.2285811651E+000       9.8524635402E+000       6.6666666667E-002       1.0000000000E-003       1.0000000000E-003       0.0000000000E+000       1.0000000000E+000       0.0000000000E+000       2.7777777791E-003       3.6167628642E-002       8.6953103861E-004       1.0000000035E+000       2.1773895630E-001       1.3127727860E-005       3.3752564709E-006       8.8303656319E+000       0.0000000000E+000       0.0000000000E+000
       0.0000000000E+000       3.1179383578E-001       0.0000000000E+000       1.6192170226E+001       0.0000000000E+000       9.9999999878E-001       2.2912699533E+000       1.0433365421E+001       6.6666666667E-002       1.0000000000E-003       1.0000000000E-003       0.0000000000E+000       1.0000000000E+000       0.0000000000E+000       2.7777777791E-003       3.5282416925E-002       8.6953103861E-004       1.0000000035E+000       2.1649565420E-001       1.3144449817E-005       3.3827060568E-006       9.4750456012E+000       0.0000000000E+000       0.0000000000E+000
       0.0000000000E+000       3.1918950757E-001       0.0000000000E+000       1.6068030393E+001       0.0000000000E+000       9.9999999878E-001       2.3542523953E+000       1.1045998580E+001       6.6666666667E-002       1.0000000000E-003       1.0000000000E-003       0.0000000000E+000       1.0000000000E+000       0.0000000000E+000       2.7777777791E-003       3.4357262997E-002       8.6953103861E-004       1.0000000035E+000       2.1488146632E-001       1.3160333155E-005       3.3897329017E-006       1.0157469423E+001       0.0000000000E+000       0.0000000000E+000
       0.0000000000E+000       3.2639594666E-001       0.0000000000E+000       1.5941082575E+001       0.0000000000E+000       9.9999999878E-001       2.4174467002E+000       1.1692061001E+001       6.6666666667E-002       1.0000000000E-003       1.0000000000E-003       0.0000000000E+000       1.0000000000E+000       0.0000000000E+000       2.7777777791E-003       3.3395666446E-002       8.6953103861E-004       1.0000000035E+000       2.1289595106E-001       1.3175322962E-005       3.3963027697E-006       1.0880383099E+001       0.0000000000E+000       0.0000000000E+000
       0.0000000000E+000       3.3341166559E-001       0.0000000000E+000       1.5811309615E+001       0.0000000000E+000       9.9999999878E-001       2.4807668415E+000       1.2373356385E+001       6.6666666667E-002       1.0000000000E-003       1.0000000000E-003       0.0000000000E+000       1.0000000000E+000       0.0000000000E+000       2.7777777791E-003       3.2401293444E-002       8.6953103861E-004       1.0000000035E+000       2.1054073806E-001       1.3189366699E-005       3.4023839565E-006       1.1646766515E+001       0.0000000000E+000       0.0000000000E+000
       0.0000000000E+000       3.4023571818E-001       0.0000000000E+000       1.5678684213E+001       0.0000000000E+000       9.9999999878E-001       2.5441211708E+000       1.3091796770E+001       6.6666666667E-002       1.0000000000E-003       1.0000000000E-003       0.0000000000E+000       1.0000000000E+000       0.0000000000E+000       2.7777777791E-003       3.1377931537E-002       8.6953103861E-004       1.0000000035E+000       2.0781947216E-001       1.3202413980E-005       3.4079473776E-006       1.2459850194E+001       0.0000000000E+000       0.0000000000E+000
       0.0000000000E+000       3.4686767480E-001       0.0000000000E+000       1.5543168509E+001       0.0000000000E+000       9.9999999878E-001       2.6074109289E+000       1.3849404790E+001       6.6666666667E-002       1.0000000000E-003       1.0000000000E-003       0.0000000000E+000       1.0000000000E+000       0.0000000000E+000       2.7777777791E-003       3.0329446740E-002       8.6953103861E-004       1.0000000035E+000       2.0473775105E-001       1.3214416341E-005       3.4129666531E-006       1.3323133215E+001       0.0000000000E+000       0.0000000000E+000
       0.0000000000E+000       3.5330759591E-001       0.0000000000E+000       1.5404713617E+001       0.0000000000E+000       9.9999999878E-001       2.6705286401E+000       1.4648315401E+001       6.6666666667E-002       1.0000000000E-003       1.0000000000E-003       0.0000000000E+000       1.0000000000E+000       0.0000000000E+000       2.7777777791E-003       2.9259743345E-002       8.6953103861E-004       1.0000000035E+000       2.0130305643E-001       1.3225326992E-005       3.4174181905E-006       1.4240402126E+001       0.0000000000E+000       0.0000000000E+000
       0.0000000000E+000       3.5955600420E-001       0.0000000000E+000       1.5263259077E+001       0.0000000000E+000       9.9999999878E-001       2.7333563721E+000       1.5490776808E+001       6.6666666667E-002       1.0000000000E-003       1.0000000000E-003       0.0000000000E+000       1.0000000000E+000       0.0000000000E+000       2.7777777791E-003       2.8172726760E-002       8.6953103861E-004       1.0000000035E+000       1.9752467832E-001       1.3235100545E-005       3.4212812709E-006       1.5215750569E+001       0.0000000000E+000       0.0000000000E+000
       0.0000000000E+000       3.6561385588E-001       0.0000000000E+000       1.5118732233E+001       0.0000000000E+000       9.9999999878E-001       2.7957638380E+000       1.6379150265E+001       6.6666666667E-002       1.0000000000E-003       1.0000000000E-003       0.0000000000E+000       1.0000000000E+000       0.0000000000E+000       2.7777777791E-003       2.7072269688E-002       8.6953103861E-004       1.0000000035E+000       1.9341363019E-001       1.3243692727E-005       3.4245382320E-006       1.6253599198E+001       0.0000000000E+000       0.0000000000E+000
       0.0000000000E+000       3.7148251118E-001       0.0000000000E+000       1.4971047517E+001       0.0000000000E+000       9.9999999878E-001       2.8576063194E+000       1.7315908264E+001       6.6666666667E-002       1.0000000000E-003       1.0000000000E-003       0.0000000000E+000       1.0000000000E+000       0.0000000000E+000       2.7777777791E-003       2.5962181849E-002       8.6953103861E-004       1.0000000035E+000       1.8898256249E-001       1.3251060057E-005       3.4271744974E-006       1.7358715210E+001       0.0000000000E+000       0.0000000000E+000
       0.0000000000E+000       3.7716370456E-001       0.0000000000E+000       1.4820105627E+001       0.0000000000E+000       9.9999999878E-001       2.9187223802E+000       1.8303630512E+001       6.6666666667E-002       1.0000000000E-003       1.0000000000E-003       0.0000000000E+000       1.0000000000E+000       0.0000000000E+000       2.7777777791E-003       2.4846183433E-002       8.6953103861E-004       1.0000000035E+000       1.8424566914E-001       1.3257159502E-005       3.4291786573E-006       1.8536230529E+001       0.0000000000E+000       0.0000000000E+000
       0.0000000000E+000       3.8265951477E-001       0.0000000000E+000       1.4665792600E+001       0.0000000000E+000       9.9999999878E-001       2.9789313441E+000       1.9344996846E+001       6.6666666667E-002       1.0000000000E-003       1.0000000000E-003       0.0000000000E+000       1.0000000000E+000       0.0000000000E+000       2.7777777791E-003       2.3727882356E-002       8.6953103861E-004       1.0000000035E+000       1.7921858799E-001       1.3261948092E-005       3.4305426004E-006       1.9791657231E+001       0.0000000000E+000       0.0000000000E+000
       0.0000000000E+000       3.8797233517E-001       0.0000000000E+000       1.4507978751E+001       0.0000000000E+000       9.9999999878E-001       3.0380304998E+000       2.0442775976E+001       6.6666666667E-002       1.0000000000E-003       1.0000000000E-003       0.0000000000E+000       1.0000000000E+000       0.0000000000E+000       2.7777777791E-003       2.2610755399E-002       8.6953103861E-004       1.0000000035E+000       1.7391829728E-001       1.3265382482E-005       3.4312616705E-006       2.1130898221E+001       0.0000000000E+000       0.0000000000E+000
       0.0000000000E+000       3.9310484436E-001       0.0000000000E+000       1.4346517473E+001       0.0000000000E+000       9.9999999878E-001       3.0957919997E+000       2.1599808593E+001       6.6666666667E-002       1.0000000000E-003       1.0000000000E-003       0.0000000000E+000       1.0000000000E+000       0.0000000000E+000       2.7777777791E-003       2.1498133184E-002       8.6953103861E-004       1.0000000035E+000       1.6836300951E-001       1.3267418476E-005       3.4313348540E-006       2.2560250365E+001       0.0000000000E+000       0.0000000000E+000
       0.0000000000E+000       3.9805997742E-001       0.0000000000E+000       1.4181243901E+001       0.0000000000E+000       9.9999999878E-001       3.1519594149E+000       2.2818982905E+001       6.6666666667E-002       1.0000000000E-003       1.0000000000E-003       0.0000000000E+000       1.0000000000E+000       0.0000000000E+000       2.7777777791E-003       2.0393188919E-002       8.6953103861E-004       1.0000000035E+000       1.6257206413E-001       1.3268010473E-005       3.4307650095E-006       2.4086396187E+001       0.0000000000E+000       0.0000000000E+000
       0.0000000000E+000       4.0284089799E-001       0.0000000000E+000       1.4011973403E+001       0.0000000000E+000       9.9999999878E-001       3.2062439064E+000       2.4103200086E+001       6.6666666667E-002       1.0000000000E-003       1.0000000000E-003       0.0000000000E+000       1.0000000000E+000       0.0000000000E+000       2.7777777791E-003       1.9298930763E-002       8.6953103861E-004       1.0000000035E+000       1.5656582084E-001       1.3267110831E-005       3.4295591490E-006       2.5716378821E+001       0.0000000000E+000       0.0000000000E+000
       0.0000000000E+000       4.0745097118E-001       0.0000000000E+000       1.3838499919E+001       0.0000000000E+000       9.9999999878E-001       3.2583199807E+000       2.5455326388E+001       6.6666666667E-002       1.0000000000E-003       1.0000000000E-003       0.0000000000E+000       1.0000000000E+000       0.0000000000E+000       2.7777777791E-003       1.8218197607E-002       8.6953103861E-004       1.0000000035E+000       1.5036555549E-001       1.3264669141E-005       3.4277287857E-006       2.7457552945E+001       0.0000000000E+000       0.0000000000E+000