 VARIABLES ="X","Y","U","W","P","C","T","k","eps", "v2","omega","nuSA","yplus","RHO","Pe","mu","mut"
 ZONE I=            98  J=            40  F=POINT 
       0.0000000000E+000      -9.2667936736E-003       0.0000000000E+000       1.8411761945E+001      -5.9784423043E+014       0.0000000000E+000       1.0000000014E+000       9.4223487081E-001       2.1526361752E+000       6.6666666667E-002       1.0000000000E-003       1.0000000000E-003       0.0000000000E+000       1.0000000000E+000       0.0000000000E+000       2.7777777806E-003       4.3901138471E-002
       0.0000000000E+000       9.2667936736E-003       0.0000000000E+000       1.8411761945E+001      -5.9784423043E+014       0.0000000000E+000       1.0000000014E+000       9.4223487081E-001       2.1526361752E+000       6.6666666667E-002       1.0000000000E-003       1.0000000000E-003       0.0000000000E+000       1.0000000000E+000       0.0000000000E+000       2.7777777806E-003       4.3901138471E-002
       0.0000000000E+000       2.7920250859E-002       0.0000000000E+000       1.8408052105E+001      -5.9784423043E+014       0.0000000000E+000       1.0000000014E+000       9.4496187806E-001       2.1631123277E+000       6.6666666667E-002       1.0000000000E-003       1.0000000000E-003       0.0000000000E+000       1.0000000000E+000       0.0000000000E+000       2.7777777806E-003       4.3753998618E-002
       0.0000000000E+000       4.6803837788E-002       0.0000000000E+000       1.8400470443E+001      -5.9784423043E+014       0.0000000000E+000       1.0000000014E+000       9.5052757639E-001       2.1845491820E+000       6.6666666667E-002       1.0000000000E-003       1.0000000000E-003       0.0000000000E+000       1.0000000000E+000       0.0000000000E+000       2.7777777806E-003       4.3632341462E-002
       0.0000000000E+000       6.5897829027E-002       0.0000000000E+000       1.8388874094E+001      -5.9784423043E+014       0.0000000000E+000       1.0000000014E+000       9.5902198103E-001       2.2174102356E+000       6.6666666667E-002       1.0000000000E-003       1.0000000000E-003       0.0000000000E+000       1.0000000000E+000       0.0000000000E+000       2.7777777806E-003       4.3536023274E-002
       0.0000000000E+000       8.5181526490E-002       0.0000000000E+000       1.8373141307E+001      -5.9784423043E+014       0.0000000000E+000       1.0000000014E+000       9.7051133172E-001       2.2621353783E+000       6.6666666667E-002       1.0000000000E-003       1.0000000000E-003       0.0000000000E+000       1.0000000000E+000       0.0000000000E+000       2.7777777806E-003       4.3464358991E-002
       0.0000000000E+000       1.0463334093E-001       0.0000000000E+000       1.8353172987E+001      -5.9784423043E+014       0.0000000000E+000       1.0000000014E+000       9.8503665606E-001       2.3191390610E+000       6.6666666667E-002       1.0000000000E-003       1.0000000000E-003       0.0000000000E+000       1.0000000000E+000       0.0000000000E+000       2.7777777806E-003       4.3416059547E-002
       0.0000000000E+000       1.2423088209E-001       0.0000000000E+000       1.8328893680E+001      -5.9784423043E+014       0.0000000000E+000       1.0000000014E+000       1.0026130840E+000       2.3888093060E+000       6.6666666667E-002       1.0000000000E-003       1.0000000000E-003       0.0000000000E+000       1.0000000000E+000       0.0000000000E+000       2.7777777806E-003       4.3389177701E-002
       0.0000000000E+000       1.4395105684E-001       0.0000000000E+000       1.8300251953E+001      -5.9784423043E+014       0.0000000000E+000       1.0000000014E+000       1.0232299701E+000       2.4715077708E+000       6.6666666667E-002       1.0000000000E-003       1.0000000000E-003       0.0000000000E+000       1.0000000000E+000       0.0000000000E+000       2.7777777806E-003       4.3381072139E-002
       0.0000000000E+000       1.6377017442E-001       0.0000000000E+000       1.8267220116E+001      -5.9784423043E+014       0.0000000000E+000       1.0000000014E+000       1.0468518264E+000       2.5675710408E+000       6.6666666667E-002       1.0000000000E-003       1.0000000000E-003       0.0000000000E+000       1.0000000000E+000       0.0000000000E+000       2.7777777806E-003       4.3388399037E-002
       0.0000000000E+000       1.8366405776E-001       0.0000000000E+000       1.8229793316E+001      -5.9784423043E+014       0.0000000000E+000       1.0000000014E+000       1.0734200146E+000       2.6773132609E+000       6.6666666667E-002       1.0000000000E-003       1.0000000000E-003       0.0000000000E+000       1.0000000000E+000       0.0000000000E+000       2.7777777806E-003       4.3407137536E-002
       0.0000000000E+000       2.0360815989E-001       0.0000000000E+000       1.8187988043E+001      -5.9784423043E+014       0.0000000000E+000       1.0000000014E+000       1.1028550873E+000       2.8010301161E+000       6.6666666667E-002       1.0000000000E-003       1.0000000000E-003       0.0000000000E+000       1.0000000000E+000       0.0000000000E+000       2.7777777806E-003       4.3432651396E-002
       0.0000000000E+000       2.2357768425E-001       0.0000000000E+000       1.8141840145E+001      -5.9784423043E+014       0.0000000000E+000       1.0000000014E+000       1.1350596295E+000       2.9390040683E+000       6.6666666667E-002       1.0000000000E-003       1.0000000000E-003       0.0000000000E+000       1.0000000000E+000       0.0000000000E+000       2.7777777806E-003       4.3459784468E-002
       0.0000000000E+000       2.4354770750E-001       0.0000000000E+000       1.8091402472E+001      -5.9784423043E+014       0.0000000000E+000       1.0000000014E+000       1.1699214217E+000       3.0915106561E+000       6.6666666667E-002       1.0000000000E-003       1.0000000000E-003       0.0000000000E+000       1.0000000000E+000       0.0000000000E+000       2.7777777806E-003       4.3482983625E-002
       0.0000000000E+000       2.6349330387E-001       0.0000000000E+000       1.8036742283E+001      -5.9784423043E+014       0.0000000000E+000       1.0000000014E+000       1.2073167406E+000       3.2588255951E+000       6.6666666667E-002       1.0000000000E-003       1.0000000000E-003       0.0000000000E+000       1.0000000000E+000       0.0000000000E+000       2.7777777806E-003       4.3496440124E-002
       0.0000000000E+000       2.8338966932E-001       0.0000000000E+000       1.7977938558E+001      -5.9784423043E+014       0.0000000000E+000       1.0000000014E+000       1.2471136235E+000       3.4412323780E+000       6.6666666667E-002       1.0000000000E-003       1.0000000000E-003       0.0000000000E+000       1.0000000000E+000       0.0000000000E+000       2.7777777806E-003       4.3494239403E-002
       0.0000000000E+000       3.0321224457E-001       0.0000000000E+000       1.7915079314E+001      -5.9784423043E+014       0.0000000000E+000       1.0000000014E+000       1.2891749491E+000       3.6390300744E+000       6.6666666667E-002       1.0000000000E-003       1.0000000000E-003       0.0000000000E+000       1.0000000000E+000       0.0000000000E+000       2.7777777806E-003       4.3470509740E-002
       0.0000000000E+000       3.2293683551E-001       0.0000000000E+000       1.7848259052E+001      -5.9784423043E+014       0.0000000000E+000       1.0000000014E+000       1.3333612227E+000       3.8525410603E+000       6.6666666667E-002       1.0000000000E-003       1.0000000000E-003       0.0000000000E+000       1.0000000000E+000       0.0000000000E+000       2.7777777806E-003       4.3419561781E-002
       0.0000000000E+000       3.4253972973E-001       0.0000000000E+000       1.7777576391E+001      -5.9784423043E+014       0.0000000000E+000       1.0000000014E+000       1.3795329895E+000       4.0821184583E+000       6.6666666667E-002       1.0000000000E-003       1.0000000000E-003       0.0000000000E+000       1.0000000000E+000       0.0000000000E+000       2.7777777806E-003       4.3336013041E-002
       0.0000000000E+000       3.6199780814E-001       0.0000000000E+000       1.7703131928E+001      -5.9784423043E+014       0.0000000000E+000       1.0000000014E+000       1.4275528376E+000       4.3281531324E+000       6.6666666667E-002       1.0000000000E-003       1.0000000000E-003       0.0000000000E+000       1.0000000000E+000       0.0000000000E+000       2.7777777806E-003       4.3214893675E-002
       0.0000000000E+000       3.8128865043E-001       0.0000000000E+000       1.7625026367E+001      -5.9784423043E+014       0.0000000000E+000       1.0000000014E+000       1.4772869815E+000       4.5910801441E+000       6.6666666667E-002       1.0000000000E-003       1.0000000000E-003       0.0000000000E+000       1.0000000000E+000       0.0000000000E+000       2.7777777806E-003       4.3051731810E-002
       0.0000000000E+000       4.0039063353E-001       0.0000000000E+000       1.7543358904E+001      -5.9784423043E+014       0.0000000000E+000       1.0000000014E+000       1.5286064395E+000       4.8713846309E+000       6.6666666667E-002       1.0000000000E-003       1.0000000000E-003       0.0000000000E+000       1.0000000000E+000       0.0000000000E+000       2.7777777806E-003       4.2842618322E-002
       0.0000000000E+000       4.1928302209E-001       0.0000000000E+000       1.7458225855E+001      -5.9784423043E+014       0.0000000000E+000       1.0000000014E+000       1.5813878373E+000       5.1696071151E+000       6.6666666667E-002       1.0000000000E-003       1.0000000000E-003       0.0000000000E+000       1.0000000000E+000       0.0000000000E+000       2.7777777806E-003       4.2584252059E-002
       0.0000000000E+000       4.3794605030E-001       0.0000000000E+000       1.7369719518E+001      -5.9784423043E+014       0.0000000000E+000       1.0000000014E+000       1.6355138758E+000       5.4863482860E+000       6.6666666667E-002       1.0000000000E-003       1.0000000000E-003       0.0000000000E+000       1.0000000000E+000       0.0000000000E+000       2.7777777806E-003       4.2273967216E-002
       0.0000000000E+000       4.5636099455E-001       0.0000000000E+000       1.7277927234E+001      -5.9784423043E+014       0.0000000000E+000       1.0000000014E+000       1.6908735082E+000       5.8222733166E+000       6.6666666667E-002       1.0000000000E-003       1.0000000000E-003       0.0000000000E+000       1.0000000000E+000       0.0000000000E+000       2.7777777806E-003       4.1909744965E-002
       0.0000000000E+000       4.7451023629E-001       0.0000000000E+000       1.7182930612E+001      -5.9784423043E+014       0.0000000000E+000       1.0000000014E+000       1.7473618694E+000       6.1781157912E+000       6.6666666667E-002       1.0000000000E-003       1.0000000000E-003       0.0000000000E+000       1.0000000000E+000       0.0000000000E+000       2.7777777806E-003       4.1490211508E-002
       0.0000000000E+000       4.9237731502E-001       0.0000000000E+000       1.7084804909E+001      -5.9784423043E+014       0.0000000000E+000       1.0000000014E+000       1.8048799982E+000       6.5546813225E+000       6.6666666667E-002       1.0000000000E-003       1.0000000000E-003       0.0000000000E+000       1.0000000000E+000       0.0000000000E+000       2.7777777806E-003       4.1014624717E-002
       0.0000000000E+000       5.0994697103E-001       0.0000000000E+000       1.6983618516E+001      -5.9784423043E+014       0.0000000000E+000       1.0000000014E+000       1.8633343898E+000       6.9528509327E+000       6.6666666667E-002       1.0000000000E-003       1.0000000000E-003       0.0000000000E+000       1.0000000000E+000       0.0000000000E+000       2.7777777806E-003       4.0482851321E-002
       0.0000000000E+000       5.2720517819E-001       0.0000000000E+000       1.6879432539E+001      -5.9784423043E+014       0.0000000000E+000       1.0000000014E+000       1.9226364070E+000       7.3735842692E+000       6.6666666667E-002       1.0000000000E-003       1.0000000000E-003       0.0000000000E+000       1.0000000000E+000       0.0000000000E+000       2.7777777806E-003       3.9895336455E-002
       0.0000000000E+000       5.4413916653E-001       0.0000000000E+000       1.6772300453E+001      -5.9784423043E+014       0.0000000000E+000       1.0000000014E+000       1.9827015776E+000       7.8179227138E+000       6.6666666667E-002       1.0000000000E-003       1.0000000000E-003       0.0000000000E+000       1.0000000000E+000       0.0000000000E+000       2.7777777806E-003       3.9253067141E-002
       0.0000000000E+000       5.6073743527E-001       0.0000000000E+000       1.6662267799E+001      -5.9784423043E+014       0.0000000000E+000       1.0000000014E+000       2.0434487949E+000       8.2869924329E+000       6.6666666667E-002       1.0000000000E-003       1.0000000000E-003       0.0000000000E+000       1.0000000000E+000       0.0000000000E+000       2.7777777806E-003       3.8557531084E-002
       0.0000000000E+000       5.7698975628E-001       0.0000000000E+000       1.6549371920E+001      -5.9784423043E+014       0.0000000000E+000       1.0000000014E+000       2.1047994385E+000       8.7820074070E+000       6.6666666667E-002       1.0000000000E-003       1.0000000000E-003       0.0000000000E+000       1.0000000000E+000       0.0000000000E+000       2.7777777806E-003       3.7810672002E-002
       0.0000000000E+000       5.9288716879E-001       0.0000000000E+000       1.6433641716E+001      -5.9784423043E+014       0.0000000000E+000       1.0000000014E+000       2.1666764215E+000       9.3042724589E+000       6.6666666667E-002       1.0000000000E-003       1.0000000000E-003       0.0000000000E+000       1.0000000000E+000       0.0000000000E+000       2.7777777806E-003       3.7014842552E-002
       0.0000000000E+000       6.0842196558E-001       0.0000000000E+000       1.6315097406E+001      -5.9784423043E+014       0.0000000000E+000       1.0000000014E+000       2.2290031729E+000       9.8551862937E+000       6.6666666667E-002       1.0000000000E-003       1.0000000000E-003       0.0000000000E+000       1.0000000000E+000       0.0000000000E+000       2.7777777806E-003       3.6172755769E-002
       0.0000000000E+000       6.2358767156E-001       0.0000000000E+000       1.6193750279E+001      -5.9784423043E+014       0.0000000000E+000       1.0000000014E+000       2.2917025547E+000       1.0436244542E+001       6.6666666667E-002       1.0000000000E-003       1.0000000000E-003       0.0000000000E+000       1.0000000000E+000       0.0000000000E+000       2.7777777806E-003       3.5287435867E-002
       0.0000000000E+000       6.3837901513E-001       0.0000000000E+000       1.6069602442E+001      -5.9784423043E+014       0.0000000000E+000       1.0000000014E+000       2.3546957132E+000       1.1049042787E+001       6.6666666667E-002       1.0000000000E-003       1.0000000000E-003       0.0000000000E+000       1.0000000000E+000       0.0000000000E+000       2.7777777806E-003       3.4362169112E-002
       0.0000000000E+000       6.5279189332E-001       0.0000000000E+000       1.5942646530E+001      -5.9784423043E+014       0.0000000000E+000       1.0000000014E+000       2.4179008585E+000       1.1695279528E+001       6.6666666667E-002       1.0000000000E-003       1.0000000000E-003       0.0000000000E+000       1.0000000000E+000       0.0000000000E+000       2.7777777806E-003       3.3400455439E-002
       0.0000000000E+000       6.6682333117E-001       0.0000000000E+000       1.5812865394E+001      -5.9784423043E+014       0.0000000000E+000       1.0000000014E+000       2.4812319665E+000       1.2376759022E+001       6.6666666667E-002       1.0000000000E-003       1.0000000000E-003       0.0000000000E+000       1.0000000000E+000       0.0000000000E+000       2.7777777806E-003       3.2405961398E-002
       0.0000000000E+000       6.8047143635E-001       0.0000000000E+000       1.5680231739E+001      -5.9784423043E+014       0.0000000000E+000       1.0000000014E+000       2.5445973919E+000       1.3095393906E+001       6.6666666667E-002       1.0000000000E-003       1.0000000000E-003       0.0000000000E+000       1.0000000000E+000       0.0000000000E+000       2.7777777806E-003       3.1382474934E-002
       0.0000000000E+000       6.9373534961E-001       0.0000000000E+000       1.5544707712E+001      -5.9784423043E+014       0.0000000000E+000       1.0000000014E+000       2.6078983794E+000       1.3853207459E+001       6.6666666667E-002       1.0000000000E-003       1.0000000000E-003       0.0000000000E+000       1.0000000000E+000       0.0000000000E+000       2.7777777806E-003       3.0333862480E-002
       0.0000000000E+000       7.0661519181E-001       0.0000000000E+000       1.5406244432E+001      -5.9784423043E+014       0.0000000000E+000       1.0000000014E+000       2.6710274583E+000       1.4652335332E+001       6.6666666667E-002       1.0000000000E-003       1.0000000000E-003       0.0000000000E+000       1.0000000000E+000       0.0000000000E+000       2.7777777806E-003       2.9264028753E-002
       0.0000000000E+000       7.1911200840E-001       0.0000000000E+000       1.5264781444E+001      -5.9784423043E+014       0.0000000000E+000       1.0000000014E+000       2.7338667013E+000       1.5495026475E+001       6.6666666667E-002       1.0000000000E-003       1.0000000000E-003       0.0000000000E+000       1.0000000000E+000       0.0000000000E+000       2.7777777806E-003       2.8176879597E-002
       0.0000000000E+000       7.3122771176E-001       0.0000000000E+000       1.5120246096E+001      -5.9784423043E+014       0.0000000000E+000       1.0000000014E+000       2.7962858275E+000       1.6383642946E+001       6.6666666667E-002       1.0000000000E-003       1.0000000000E-003       0.0000000000E+000       1.0000000000E+000       0.0000000000E+000       2.7777777806E-003       2.7076288146E-002
       0.0000000000E+000       7.4296502236E-001       0.0000000000E+000       1.4972552825E+001      -5.9784423043E+014       0.0000000000E+000       1.0000000014E+000       2.8581401245E+000       1.7320658100E+001       6.6666666667E-002       1.0000000000E-003       1.0000000000E-003       0.0000000000E+000       1.0000000000E+000       0.0000000000E+000       2.7777777806E-003       2.5966064551E-002
       0.0000000000E+000       7.5432740911E-001       0.0000000000E+000       1.4821602334E+001      -5.9784423043E+014       0.0000000000E+000       1.0000000014E+000       2.9192681625E+000       1.8308652574E+001       6.6666666667E-002       1.0000000000E-003       1.0000000000E-003       0.0000000000E+000       1.0000000000E+000       0.0000000000E+000       2.7777777806E-003       2.4849929418E-002
       0.0000000000E+000       7.6531902954E-001       0.0000000000E+000       1.4667280665E+001      -5.9784423043E+014       0.0000000000E+000       1.0000000014E+000       2.9794892717E+000       1.9350307206E+001       6.6666666667E-002       1.0000000000E-003       1.0000000000E-003       0.0000000000E+000       1.0000000000E+000       0.0000000000E+000       2.7777777806E-003       2.3731491068E-002
       0.0000000000E+000       7.7594467035E-001       0.0000000000E+000       1.4509458135E+001      -5.9784423043E+014       0.0000000000E+000       1.0000000014E+000       3.0386007469E+000       2.0448391786E+001       6.6666666667E-002       1.0000000000E-003       1.0000000000E-003       0.0000000000E+000       1.0000000000E+000       0.0000000000E+000       2.7777777806E-003       2.2614226667E-002
       0.0000000000E+000       7.8620968872E-001       0.0000000000E+000       1.4347988144E+001      -5.9784423043E+014       0.0000000000E+000       1.0000000014E+000       3.0963747467E+000       2.1605748172E+001       6.6666666667E-002       1.0000000000E-003       1.0000000000E-003       0.0000000000E+000       1.0000000000E+000       0.0000000000E+000       2.7777777806E-003       2.1501467201E-002
       0.0000000000E+000       7.9611995484E-001       0.0000000000E+000       1.4182705828E+001      -5.9784423043E+014       0.0000000000E+000       1.0000000014E+000       3.1525548471E+000       2.2825265833E+001       6.6666666667E-002       1.0000000000E-003       1.0000000000E-003       0.0000000000E+000       1.0000000000E+000       0.0000000000E+000       2.7777777806E-003       2.0396386217E-002
       0.0000000000E+000       8.0568179598E-001       0.0000000000E+000       1.4013426560E+001      -5.9784423043E+014       0.0000000000E+000       1.0000000014E+000       3.2068522139E+000       2.4109847310E+001       6.6666666667E-002       1.0000000000E-003       1.0000000000E-003       0.0000000000E+000       1.0000000000E+000       0.0000000000E+000       2.7777777806E-003       1.9301992183E-002
       0.0000000000E+000       8.1490194236E-001       0.0000000000E+000       1.3839944283E+001      -5.9784423043E+014       0.0000000000E+000       1.0000000014E+000       3.2589413566E+000       2.5462360335E+001       6.6666666667E-002       1.0000000000E-003       1.0000000000E-003       0.0000000000E+000       1.0000000000E+000       0.0000000000E+000       2.7777777806E-003       1.8221124275E-002
       0.0000000000E+000       8.2378747516E-001       0.0000000000E+000       1.3662029678E+001      -5.9784423043E+014       0.0000000000E+000       1.0000000014E+000       3.3084554362E+000       2.6885572469E+001       6.6666666667E-002       1.0000000000E-003       1.0000000000E-003       0.0000000000E+000       1.0000000000E+000       0.0000000000E+000       2.7777777806E-003       1.7156451294E-002
       0.0000000000E+000       8.3234577677E-001       0.0000000000E+000       1.3479428168E+001      -5.9784423043E+014       0.0000000000E+000       1.0000000014E+000       3.3549811089E+000       2.8382062971E+001       6.6666666667E-002       1.0000000000E-003       1.0000000000E-003       0.0000000000E+000       1.0000000000E+000       0.0000000000E+000       2.7777777806E-003       1.6110473419E-002
       0.0000000000E+000       8.4058448357E-001       0.0000000000E+000       1.3291857774E+001      -5.9784423043E+014       0.0000000000E+000       1.0000000014E+000       3.3980529121E+000       2.9954105350E+001       6.6666666667E-002       1.0000000000E-003       1.0000000000E-003       0.0000000000E+000       1.0000000000E+000       0.0000000000E+000       2.7777777806E-003       1.5085526408E-002
       0.0000000000E+000       8.4851144115E-001       0.0000000000E+000       1.3099006847E+001      -5.9784423043E+014       0.0000000000E+000       1.0000000014E+000       3.4371472304E+000       3.1603512496E+001       6.6666666667E-002       1.0000000000E-003       1.0000000000E-003       0.0000000000E+000       1.0000000000E+000       0.0000000000E+000       2.7777777806E-003       1.4083787832E-002
       0.0000000000E+000       8.5613466229E-001       0.0000000000E+000       1.2900531730E+001      -5.9784423043E+014       0.0000000000E+000       1.0000000014E+000       3.4716759383E+000       3.3331434601E+001       6.6666666667E-002       1.0000000000E-003       1.0000000000E-003       0.0000000000E+000       1.0000000000E+000       0.0000000000E+000       2.7777777806E-003       1.3107284902E-002
       0.0000000000E+000       8.6346228758E-001       0.0000000000E+000       1.2696054412E+001      -5.9784423043E+014       0.0000000000E+000       1.0000000014E+000       3.5009798922E+000       3.5138098324E+001       6.6666666667E-002       1.0000000000E-003       1.0000000000E-003       0.0000000000E+000       1.0000000000E+000       0.0000000000E+000       2.7777777806E-003       1.2157903415E-002
       0.0000000000E+000       8.7050254873E-001       0.0000000000E+000       1.2485160307E+001      -5.9784423043E+014       0.0000000000E+000       1.0000000014E+000       3.5243225688E+000       3.7022473988E+001       6.6666666667E-002       1.0000000000E-003       1.0000000000E-003       0.0000000000E+000       1.0000000000E+000       0.0000000000E+000       2.7777777806E-003       1.1237397371E-002
       0.0000000000E+000       8.7726373460E-001       0.0000000000E+000       1.2267396325E+001      -5.9784423043E+014       0.0000000000E+000       1.0000000014E+000       3.5408843113E+000       3.8981856392E+001       6.6666666667E-002       1.0000000000E-003       1.0000000000E-003       0.0000000000E+000       1.0000000000E+000       0.0000000000E+000       2.7777777806E-003       1.0347398775E-002
       0.0000000000E+000       8.8375415988E-001       0.0000000000E+000       1.2042269470E+001      -5.9784423043E+014       0.0000000000E+000       1.0000000014E+000       3.5497578848E+000       4.1011344687E+001       6.6666666667E-002       1.0000000000E-003       1.0000000000E-003       0.0000000000E+000       1.0000000000E+000       0.0000000000E+000       2.7777777806E-003       9.4894271748E-003
       0.0000000000E+000       8.8998213639E-001       0.0000000000E+000       1.1809246349E+001      -5.9784423043E+014       0.0000000000E+000       1.0000000014E+000       3.5499463592E+000       4.3103208537E+001       6.6666666667E-002       1.0000000000E-003       1.0000000000E-003       0.0000000000E+000       1.0000000000E+000       0.0000000000E+000       2.7777777806E-003       8.6648985115E-003
       0.0000000000E+000       8.9595594686E-001       0.0000000000E+000       1.1567754062E+001      -5.9784423043E+014       0.0000000000E+000       1.0000000014E+000       3.5403647637E+000       4.5246133050E+001       6.6666666667E-002       1.0000000000E-003       1.0000000000E-003       0.0000000000E+000       1.0000000000E+000       0.0000000000E+000       2.7777777806E-003       7.8751328064E-003
       0.0000000000E+000       9.0168382125E-001       0.0000000000E+000       1.1317183161E+001      -5.9784423043E+014       0.0000000000E+000       1.0000000014E+000       3.5198474828E+000       4.7424345592E+001       6.6666666667E-002       1.0000000000E-003       1.0000000000E-003       0.0000000000E+000       1.0000000000E+000       0.0000000000E+000       2.7777777806E-003       7.1213602247E-003
       0.0000000000E+000       9.0717391533E-001       0.0000000000E+000       1.1056893600E+001      -5.9784423043E+014       0.0000000000E+000       1.0000000014E+000       3.4871640018E+000       4.9616646565E+001       6.6666666667E-002       1.0000000000E-003       1.0000000000E-003       0.0000000000E+000       1.0000000000E+000       0.0000000000E+000       2.7777777806E-003       6.4047249371E-003
       0.0000000000E+000       9.1243429153E-001       0.0000000000E+000       1.0786224842E+001      -5.9784423043E+014       0.0000000000E+000       1.0000000014E+000       3.4410462904E+000       5.1795396774E+001       6.6666666667E-002       1.0000000000E-003       1.0000000000E-003       0.0000000000E+000       1.0000000000E+000       0.0000000000E+000       2.7777777806E-003       5.7262860529E-003
       0.0000000000E+000       9.1747290199E-001       0.0000000000E+000       1.0504511623E+001      -5.9784423043E+014       0.0000000000E+000       1.0000000014E+000       3.3802317328E+000       5.3925559751E+001       6.6666666667E-002       1.0000000000E-003       1.0000000000E-003       0.0000000000E+000       1.0000000000E+000       0.0000000000E+000       2.7777777806E-003       5.0870146384E-003
       0.0000000000E+000       9.2229757354E-001       0.0000000000E+000       1.0211107136E+001      -5.9784423043E+014       0.0000000000E+000       1.0000000014E+000       3.3035258235E+000       5.5963960434E+001       6.6666666667E-002       1.0000000000E-003       1.0000000000E-003       0.0000000000E+000       1.0000000000E+000       0.0000000000E+000       2.7777777806E-003       4.4877854830E-003
       0.0000000000E+000       9.2691599462E-001       0.0000000000E+000       9.9054155567E+000      -5.9784423043E+014       0.0000000000E+000       1.0000000014E+000       3.2098884640E+000       5.7858999982E+001       6.6666666667E-002       1.0000000000E-003       1.0000000000E-003       0.0000000000E+000       1.0000000000E+000       0.0000000000E+000       2.7777777806E-003       3.9293618561E-003
       0.0000000000E+000       9.3133570398E-001       0.0000000000E+000       9.5869356879E+000      -5.9784423043E+014       0.0000000000E+000       1.0000000014E+000       3.0985460225E+000       5.9551149673E+001       6.6666666667E-002       1.0000000000E-003       1.0000000000E-003       0.0000000000E+000       1.0000000000E+000       0.0000000000E+000       2.7777777806E-003       3.4123711222E-003
       0.0000000000E+000       9.3556408104E-001       0.0000000000E+000       9.2553168350E+000      -5.9784423043E+014       0.0000000000E+000       1.0000000014E+000       2.9691276393E+000       6.0974609295E+001       6.6666666667E-002       1.0000000000E-003       1.0000000000E-003       0.0000000000E+000       1.0000000000E+000       0.0000000000E+000       2.7777777806E-003       2.9372689642E-003
       0.0000000000E+000       9.3960833779E-001       0.0000000000E+000       8.9104264295E+000      -5.9784423043E+014       0.0000000000E+000       1.0000000014E+000       2.8218179444E+000       6.2060512281E+001       6.6666666667E-002       1.0000000000E-003       1.0000000000E-003       0.0000000000E+000       1.0000000000E+000       0.0000000000E+000       2.7777777806E-003       2.5042904542E-003
       0.0000000000E+000       9.4347551212E-001       0.0000000000E+000       8.5524262157E+000      -5.9784423043E+014       0.0000000000E+000       1.0000000014E+000       2.6575093564E+000       6.2741928349E+001       6.6666666667E-002       1.0000000000E-003       1.0000000000E-003       0.0000000000E+000       1.0000000000E+000       0.0000000000E+000       2.7777777806E-003       2.1133877741E-003