 VARIABLES ="X","Y","U","W","C","T","k","eps", "v2","omega","nuSA","yplus","RHO","Pe","mu","mut"
 ZONE I=            98  J=           200  F=POINT 
       0.0000000000E+000      -4.6333968368E-003       0.0000000000E+000       1.8409712157E+001       0.0000000000E+000       9.9999999878E-001       9.4200160808E-001       2.1518211008E+000       6.6666666667E-002       1.0000000000E-003       1.0000000000E-003       0.0000000000E+000       1.0000000000E+000       0.0000000000E+000       2.7777777791E-003       4.3895672824E-002
       0.0000000000E+000       4.6333968368E-003       0.0000000000E+000       1.8409712157E+001       0.0000000000E+000       9.9999999878E-001       9.4200160808E-001       2.1518211008E+000       6.6666666667E-002       1.0000000000E-003       1.0000000000E-003       0.0000000000E+000       1.0000000000E+000       0.0000000000E+000       2.7777777791E-003       4.3895672824E-002
       0.0000000000E+000       1.3960125430E-002       0.0000000000E+000       1.8406002754E+001       0.0000000000E+000       9.9999999878E-001       9.4472800830E-001       2.1622935138E+000       6.6666666667E-002       1.0000000000E-003       1.0000000000E-003       0.0000000000E+000       1.0000000000E+000       0.0000000000E+000       2.7777777791E-003       4.3748521896E-002
       0.0000000000E+000       2.3401918894E-002       0.0000000000E+000       1.8398421980E+001       0.0000000000E+000       9.9999999878E-001       9.5029246792E-001       2.1837227181E+000       6.6666666667E-002       1.0000000000E-003       1.0000000000E-003       0.0000000000E+000       1.0000000000E+000       0.0000000000E+000       2.7777777791E-003       4.3626850720E-002
       0.0000000000E+000       3.2948914513E-002       0.0000000000E+000       1.8386826981E+001       0.0000000000E+000       9.9999999878E-001       9.5878498313E-001       2.2165720508E+000       6.6666666667E-002       1.0000000000E-003       1.0000000000E-003       0.0000000000E+000       1.0000000000E+000       0.0000000000E+000       2.7777777791E-003       4.3530515556E-002
       0.0000000000E+000       4.2590763245E-002       0.0000000000E+000       1.8371096015E+001       0.0000000000E+000       9.9999999878E-001       9.7027178111E-001       2.2612812544E+000       6.6666666667E-002       1.0000000000E-003       1.0000000000E-003       0.0000000000E+000       1.0000000000E+000       0.0000000000E+000       2.7777777791E-003       4.3458831409E-002
       0.0000000000E+000       5.2316670463E-002       0.0000000000E+000       1.8351129990E+001       0.0000000000E+000       9.9999999878E-001       9.8479388359E-001       2.3182646456E+000       6.6666666667E-002       1.0000000000E-003       1.0000000000E-003       0.0000000000E+000       1.0000000000E+000       0.0000000000E+000       2.7777777791E-003       4.3410509365E-002
       0.0000000000E+000       6.2115441043E-002       0.0000000000E+000       1.8326853456E+001       0.0000000000E+000       9.9999999878E-001       1.0023664214E+000       2.3879101264E+000       6.6666666667E-002       1.0000000000E-003       1.0000000000E-003       0.0000000000E+000       1.0000000000E+000       0.0000000000E+000       2.7777777791E-003       4.3383602423E-002
       0.0000000000E+000       7.1975528421E-002       0.0000000000E+000       1.8298214977E+001       0.0000000000E+000       9.9999999878E-001       1.0229787563E+000       2.4705792474E+000       6.6666666667E-002       1.0000000000E-003       1.0000000000E-003       0.0000000000E+000       1.0000000000E+000       0.0000000000E+000       2.7777777791E-003       4.3375469597E-002
       0.0000000000E+000       8.1885087210E-002       0.0000000000E+000       1.8265186860E+001       0.0000000000E+000       9.9999999878E-001       1.0465954143E+000       2.5666084996E+000       6.6666666667E-002       1.0000000000E-003       1.0000000000E-003       0.0000000000E+000       1.0000000000E+000       0.0000000000E+000       2.7777777791E-003       4.3382767479E-002
       0.0000000000E+000       9.1832028879E-002       0.0000000000E+000       1.8227764244E+001       0.0000000000E+000       9.9999999878E-001       1.0731577759E+000       2.6763119448E+000       6.6666666667E-002       1.0000000000E-003       1.0000000000E-003       0.0000000000E+000       1.0000000000E+000       0.0000000000E+000       2.7777777791E-003       4.3401475703E-002
       0.0000000000E+000       1.0180407995E-001       0.0000000000E+000       1.8185963608E+001       0.0000000000E+000       9.9999999878E-001       1.1025864180E+000       2.7999851945E+000       6.6666666667E-002       1.0000000000E-003       1.0000000000E-003       0.0000000000E+000       1.0000000000E+000       0.0000000000E+000       2.7777777791E-003       4.3426958596E-002
       0.0000000000E+000       1.1178884212E-001       0.0000000000E+000       1.8139820788E+001       0.0000000000E+000       9.9999999878E-001       1.1347839535E+000       2.9379106445E+000       6.6666666667E-002       1.0000000000E-003       1.0000000000E-003       0.0000000000E+000       1.0000000000E+000       0.0000000000E+000       2.7777777791E-003       4.3454060638E-002
       0.0000000000E+000       1.2177385375E-001       0.0000000000E+000       1.8089388618E+001       0.0000000000E+000       9.9999999878E-001       1.1696381944E+000       3.0903637719E+000       6.6666666667E-002       1.0000000000E-003       1.0000000000E-003       0.0000000000E+000       1.0000000000E+000       0.0000000000E+000       2.7777777791E-003       4.3477229373E-002
       0.0000000000E+000       1.3174665193E-001       0.0000000000E+000       1.8034734344E+001       0.0000000000E+000       9.9999999878E-001       1.2070254509E+000       3.2576202329E+000       6.6666666667E-002       1.0000000000E-003       1.0000000000E-003       0.0000000000E+000       1.0000000000E+000       0.0000000000E+000       2.7777777791E-003       4.3490656769E-002
       0.0000000000E+000       1.4169483466E-001       0.0000000000E+000       1.7975936925E+001       0.0000000000E+000       9.9999999878E-001       1.2468137952E+000       3.4399634593E+000       6.6666666667E-002       1.0000000000E-003       1.0000000000E-003       0.0000000000E+000       1.0000000000E+000       0.0000000000E+000       2.7777777791E-003       4.3488428987E-002
       0.0000000000E+000       1.5160612229E-001       0.0000000000E+000       1.7913084361E+001       0.0000000000E+000       9.9999999878E-001       1.2888661418E+000       3.6376924561E+000       6.6666666667E-002       1.0000000000E-003       1.0000000000E-003       0.0000000000E+000       1.0000000000E+000       0.0000000000E+000       2.7777777791E-003       4.3464675028E-002
       0.0000000000E+000       1.6146841776E-001       0.0000000000E+000       1.7846271135E+001       0.0000000000E+000       9.9999999878E-001       1.3330430311E+000       3.8511295272E+000       6.6666666667E-002       1.0000000000E-003       1.0000000000E-003       0.0000000000E+000       1.0000000000E+000       0.0000000000E+000       2.7777777791E-003       4.3413706250E-002
       0.0000000000E+000       1.7126986487E-001       0.0000000000E+000       1.7775595843E+001       0.0000000000E+000       9.9999999878E-001       1.3792050433E+000       4.0806277132E+000       6.6666666667E-002       1.0000000000E-003       1.0000000000E-003       0.0000000000E+000       1.0000000000E+000       0.0000000000E+000       2.7777777791E-003       4.3330140854E-002
       0.0000000000E+000       1.8099890407E-001       0.0000000000E+000       1.7701159065E+001       0.0000000000E+000       9.9999999878E-001       1.4272147998E+000       4.3265777838E+000       6.6666666667E-002       1.0000000000E-003       1.0000000000E-003       0.0000000000E+000       1.0000000000E+000       0.0000000000E+000       2.7777777791E-003       4.3209009637E-002
       0.0000000000E+000       1.9064432522E-001       0.0000000000E+000       1.7623061484E+001       0.0000000000E+000       9.9999999878E-001       1.4769385466E+000       4.5894146910E+000       6.6666666667E-002       1.0000000000E-003       1.0000000000E-003       0.0000000000E+000       1.0000000000E+000       0.0000000000E+000       2.7777777791E-003       4.3045841322E-002
       0.0000000000E+000       2.0019531677E-001       0.0000000000E+000       1.7541402277E+001       0.0000000000E+000       9.9999999878E-001       1.5282473319E+000       4.8696234456E+000       6.6666666667E-002       1.0000000000E-003       1.0000000000E-003       0.0000000000E+000       1.0000000000E+000       0.0000000000E+000       2.7777777791E-003       4.2836727325E-002
       0.0000000000E+000       2.0964151104E-001       0.0000000000E+000       1.7456277740E+001       0.0000000000E+000       9.9999999878E-001       1.5810178088E+000       5.1677444243E+000       6.6666666667E-002       1.0000000000E-003       1.0000000000E-003       0.0000000000E+000       1.0000000000E+000       0.0000000000E+000       2.7777777791E-003       4.2578366966E-002
       0.0000000000E+000       2.1897302515E-001       0.0000000000E+000       1.7367780155E+001       0.0000000000E+000       9.9999999878E-001       1.6351327033E+000       5.4843781496E+000       6.6666666667E-002       1.0000000000E-003       1.0000000000E-003       0.0000000000E+000       1.0000000000E+000       0.0000000000E+000       2.7777777791E-003       4.2268094849E-002
       0.0000000000E+000       2.2818049727E-001       0.0000000000E+000       1.7275996842E+001       0.0000000000E+000       9.9999999878E-001       1.6904809913E+000       5.8201896052E+000       6.6666666667E-002       1.0000000000E-003       1.0000000000E-003       0.0000000000E+000       1.0000000000E+000       0.0000000000E+000       2.7777777791E-003       4.1903892478E-002
       0.0000000000E+000       2.3725511815E-001       0.0000000000E+000       1.7181009395E+001       0.0000000000E+000       9.9999999878E-001       1.7469578279E+000       6.1759121622E+000       6.6666666667E-002       1.0000000000E-003       1.0000000000E-003       0.0000000000E+000       1.0000000000E+000       0.0000000000E+000       2.7777777791E-003       4.1484386319E-002
       0.0000000000E+000       2.4618865751E-001       0.0000000000E+000       1.7082893053E+001       0.0000000000E+000       9.9999999878E-001       1.8044642698E+000       6.5523511945E+000       6.6666666667E-002       1.0000000000E-003       1.0000000000E-003       0.0000000000E+000       1.0000000000E+000       0.0000000000E+000       2.7777777791E-003       4.1008834429E-002
       0.0000000000E+000       2.5497348552E-001       0.0000000000E+000       1.6981716193E+001       0.0000000000E+000       9.9999999878E-001       1.8629068275E+000       6.9503874587E+000       6.6666666667E-002       1.0000000000E-003       1.0000000000E-003       0.0000000000E+000       1.0000000000E+000       0.0000000000E+000       2.7777777791E-003       4.0477103653E-002
       0.0000000000E+000       2.6360258909E-001       0.0000000000E+000       1.6877539906E+001       0.0000000000E+000       9.9999999878E-001       1.9221968770E+000       7.3709803086E+000       6.6666666667E-002       1.0000000000E-003       1.0000000000E-003       0.0000000000E+000       1.0000000000E+000       0.0000000000E+000       2.7777777791E-003       3.9889639170E-002
       0.0000000000E+000       2.7206958327E-001       0.0000000000E+000       1.6770417653E+001       0.0000000000E+000       9.9999999878E-001       1.9822499572E+000       7.8151708025E+000       6.6666666667E-002       1.0000000000E-003       1.0000000000E-003       0.0000000000E+000       1.0000000000E+000       0.0000000000E+000       2.7777777791E-003       3.9247427976E-002
       0.0000000000E+000       2.8036871763E-001       0.0000000000E+000       1.6660394961E+001       0.0000000000E+000       9.9999999878E-001       2.0429849706E+000       8.2840847532E+000       6.6666666667E-002       1.0000000000E-003       1.0000000000E-003       0.0000000000E+000       1.0000000000E+000       0.0000000000E+000       2.7777777791E-003       3.8551957682E-002
       0.0000000000E+000       2.8849487814E-001       0.0000000000E+000       1.6547509162E+001       0.0000000000E+000       9.9999999878E-001       2.1043233037E+000       8.7789357541E+000       6.6666666667E-002       1.0000000000E-003       1.0000000000E-003       0.0000000000E+000       1.0000000000E+000       0.0000000000E+000       2.7777777791E-003       3.7805171854E-002
       0.0000000000E+000       2.9644358439E-001       0.0000000000E+000       1.6431789146E+001       0.0000000000E+000       9.9999999878E-001       2.1661878752E+000       9.3010282079E+000       6.6666666667E-002       1.0000000000E-003       1.0000000000E-003       0.0000000000E+000       1.0000000000E+000       0.0000000000E+000       2.7777777791E-003       3.7009422937E-002
       0.0000000000E+000       3.0421098279E-001       0.0000000000E+000       1.6313255119E+001       0.0000000000E+000       9.9999999878E-001       2.2285021179E+000       9.8517603636E+000       6.6666666667E-002       1.0000000000E-003       1.0000000000E-003       0.0000000000E+000       1.0000000000E+000       0.0000000000E+000       2.7777777791E-003       3.6167423700E-002
       0.0000000000E+000       3.1179383578E-001       0.0000000000E+000       1.6191918362E+001       0.0000000000E+000       9.9999999878E-001       2.2911888962E+000       1.0432627358E+001       6.6666666667E-002       1.0000000000E-003       1.0000000000E-003       0.0000000000E+000       1.0000000000E+000       0.0000000000E+000       2.7777777791E-003       3.5282198043E-002
       0.0000000000E+000       3.1918950757E-001       0.0000000000E+000       1.6067780972E+001       0.0000000000E+000       9.9999999878E-001       2.3541693574E+000       1.1045224241E+001       6.6666666667E-002       1.0000000000E-003       1.0000000000E-003       0.0000000000E+000       1.0000000000E+000       0.0000000000E+000       2.7777777791E-003       3.4357031876E-002
       0.0000000000E+000       3.2639594666E-001       0.0000000000E+000       1.5940835577E+001       0.0000000000E+000       9.9999999878E-001       2.4173617115E+000       1.1691248937E+001       6.6666666667E-002       1.0000000000E-003       1.0000000000E-003       0.0000000000E+000       1.0000000000E+000       0.0000000000E+000       2.7777777791E-003       3.3395424742E-002
       0.0000000000E+000       3.3341166559E-001       0.0000000000E+000       1.5811065020E+001       0.0000000000E+000       9.9999999878E-001       2.4806799333E+000       1.2372505084E+001       6.6666666667E-002       1.0000000000E-003       1.0000000000E-003       0.0000000000E+000       1.0000000000E+000       0.0000000000E+000       2.7777777791E-003       3.2401042763E-002
       0.0000000000E+000       3.4023571818E-001       0.0000000000E+000       1.5678441998E+001       0.0000000000E+000       9.9999999878E-001       2.5440323756E+000       1.3090904652E+001       6.6666666667E-002       1.0000000000E-003       1.0000000000E-003       0.0000000000E+000       1.0000000000E+000       0.0000000000E+000       2.7777777791E-003       3.1377673433E-002
       0.0000000000E+000       3.4686767480E-001       0.0000000000E+000       1.5542928654E+001       0.0000000000E+000       9.9999999878E-001       2.6073202802E+000       1.3848470204E+001       6.6666666667E-002       1.0000000000E-003       1.0000000000E-003       0.0000000000E+000       1.0000000000E+000       0.0000000000E+000       2.7777777791E-003       3.0329182717E-002
       0.0000000000E+000       3.5330759591E-001       0.0000000000E+000       1.5404476099E+001       0.0000000000E+000       9.9999999878E-001       2.6704361729E+000       1.4647336618E+001       6.6666666667E-002       1.0000000000E-003       1.0000000000E-003       0.0000000000E+000       1.0000000000E+000       0.0000000000E+000       2.7777777791E-003       2.9259474846E-002
       0.0000000000E+000       3.5955600420E-001       0.0000000000E+000       1.5263023874E+001       0.0000000000E+000       9.9999999878E-001       2.7332621227E+000       1.5489752021E+001       6.6666666667E-002       1.0000000000E-003       1.0000000000E-003       0.0000000000E+000       1.0000000000E+000       0.0000000000E+000       2.7777777791E-003       2.8172455170E-002
       0.0000000000E+000       3.6561385588E-001       0.0000000000E+000       1.5118499323E+001       0.0000000000E+000       9.9999999878E-001       2.7956678443E+000       1.6378077575E+001       6.6666666667E-002       1.0000000000E-003       1.0000000000E-003       0.0000000000E+000       1.0000000000E+000       0.0000000000E+000       2.7777777791E-003       2.7071996329E-002
       0.0000000000E+000       3.7148251118E-001       0.0000000000E+000       1.4970816876E+001       0.0000000000E+000       9.9999999878E-001       2.8575086208E+000       1.7314785682E+001       6.6666666667E-002       1.0000000000E-003       1.0000000000E-003       0.0000000000E+000       1.0000000000E+000       0.0000000000E+000       2.7777777791E-003       2.5961907980E-002
       0.0000000000E+000       3.7716370456E-001       0.0000000000E+000       1.4819877235E+001       0.0000000000E+000       9.9999999878E-001       2.9186230179E+000       1.8302455948E+001       6.6666666667E-002       1.0000000000E-003       1.0000000000E-003       0.0000000000E+000       1.0000000000E+000       0.0000000000E+000       2.7777777791E-003       2.4845910243E-002
       0.0000000000E+000       3.8265951477E-001       0.0000000000E+000       1.4665566436E+001       0.0000000000E+000       9.9999999878E-001       2.9788303612E+000       1.9343768100E+001       6.6666666667E-002       1.0000000000E-003       1.0000000000E-003       0.0000000000E+000       1.0000000000E+000       0.0000000000E+000       2.7777777791E-003       2.3727610969E-002
       0.0000000000E+000       3.8797233517E-001       0.0000000000E+000       1.4507754794E+001       0.0000000000E+000       9.9999999878E-001       3.0379279414E+000       2.0441490734E+001       6.6666666667E-002       1.0000000000E-003       1.0000000000E-003       0.0000000000E+000       1.0000000000E+000       0.0000000000E+000       2.7777777791E-003       2.2610486867E-002
       0.0000000000E+000       3.9310484436E-001       0.0000000000E+000       1.4346295705E+001       0.0000000000E+000       9.9999999878E-001       3.0956879135E+000       2.1598464413E+001       6.6666666667E-002       1.0000000000E-003       1.0000000000E-003       0.0000000000E+000       1.0000000000E+000       0.0000000000E+000       2.7777777791E-003       2.1497868488E-002
       0.0000000000E+000       3.9805997742E-001       0.0000000000E+000       1.4181024303E+001       0.0000000000E+000       9.9999999878E-001       3.1518538508E+000       2.2817577211E+001       6.6666666667E-002       1.0000000000E-003       1.0000000000E-003       0.0000000000E+000       1.0000000000E+000       0.0000000000E+000       2.7777777791E-003       2.0392928968E-002
       0.0000000000E+000       4.0284089799E-001       0.0000000000E+000       1.4011755958E+001       0.0000000000E+000       9.9999999878E-001       3.2061369173E+000       2.4101730154E+001       6.6666666667E-002       1.0000000000E-003       1.0000000000E-003       0.0000000000E+000       1.0000000000E+000       0.0000000000E+000       2.7777777791E-003       1.9298676394E-002
       0.0000000000E+000       4.0745097118E-001       0.0000000000E+000       1.3838284613E+001       0.0000000000E+000       9.9999999878E-001       3.2582116226E+000       2.5453789335E+001       6.6666666667E-002       1.0000000000E-003       1.0000000000E-003       0.0000000000E+000       1.0000000000E+000       0.0000000000E+000       2.7777777791E-003       1.8217949587E-002
       0.0000000000E+000       4.1189373758E-001       0.0000000000E+000       1.3660380946E+001       0.0000000000E+000       9.9999999878E-001       3.3077111299E+000       2.6876520530E+001       6.6666666667E-002       1.0000000000E-003       1.0000000000E-003       0.0000000000E+000       1.0000000000E+000       0.0000000000E+000       2.7777777791E-003       1.7153417026E-002
       0.0000000000E+000       4.1617288839E-001       0.0000000000E+000       1.3477790380E+001       0.0000000000E+000       9.9999999878E-001       3.3542221011E+000       2.8372501061E+001       6.6666666667E-002       1.0000000000E-003       1.0000000000E-003       0.0000000000E+000       1.0000000000E+000       0.0000000000E+000       2.7777777791E-003       1.6107578601E-002
       0.0000000000E+000       4.2029224178E-001       0.0000000000E+000       1.3290230938E+001       0.0000000000E+000       9.9999999878E-001       3.3972790827E+000       2.9944002333E+001       6.6666666667E-002       1.0000000000E-003       1.0000000000E-003       0.0000000000E+000       1.0000000000E+000       0.0000000000E+000       2.7777777791E-003       1.5082769813E-002
       0.0000000000E+000       4.2425572057E-001       0.0000000000E+000       1.3097390976E+001       0.0000000000E+000       9.9999999878E-001       3.4363584745E+000       3.1592834953E+001       6.6666666667E-002       1.0000000000E-003       1.0000000000E-003       0.0000000000E+000       1.0000000000E+000       0.0000000000E+000       2.7777777791E-003       1.4081168006E-002
       0.0000000000E+000       4.2806733114E-001       0.0000000000E+000       1.2898926838E+001       0.0000000000E+000       9.9999999878E-001       3.4708721734E+000       3.3320146644E+001       6.6666666667E-002       1.0000000000E-003       1.0000000000E-003       0.0000000000E+000       1.0000000000E+000       0.0000000000E+000       2.7777777791E-003       1.3104800195E-002
       0.0000000000E+000       4.3173114379E-001       0.0000000000E+000       1.2694460525E+001       0.0000000000E+000       9.9999999878E-001       3.5001610685E+000       3.5126161411E+001       6.6666666667E-002       1.0000000000E-003       1.0000000000E-003       0.0000000000E+000       1.0000000000E+000       0.0000000000E+000       2.7777777791E-003       1.2155552013E-002
       0.0000000000E+000       4.3525127437E-001       0.0000000000E+000       1.2483577465E+001       0.0000000000E+000       9.9999999878E-001       3.5234886823E+000       3.7009846750E+001       6.6666666667E-002       1.0000000000E-003       1.0000000000E-003       0.0000000000E+000       1.0000000000E+000       0.0000000000E+000       2.7777777791E-003       1.1235177320E-002
       0.0000000000E+000       4.3863186730E-001       0.0000000000E+000       1.2265824585E+001       0.0000000000E+000       9.9999999878E-001       3.5400354220E+000       3.8968494503E+001       6.6666666667E-002       1.0000000000E-003       1.0000000000E-003       0.0000000000E+000       1.0000000000E+000       0.0000000000E+000       2.7777777791E-003       1.0345308000E-002
       0.0000000000E+000       4.4187707994E-001       0.0000000000E+000       1.2040708921E+001       0.0000000000E+000       9.9999999878E-001       3.5488941402E+000       4.0997200792E+001       6.6666666667E-002       1.0000000000E-003       1.0000000000E-003       0.0000000000E+000       1.0000000000E+000       0.0000000000E+000       2.7777777791E-003       9.4874635069E-003
       0.0000000000E+000       4.4499106819E-001       0.0000000000E+000       1.1807697117E+001       0.0000000000E+000       9.9999999878E-001       3.5490680265E+000       4.3088232306E+001       6.6666666667E-002       1.0000000000E-003       1.0000000000E-003       0.0000000000E+000       1.0000000000E+000       0.0000000000E+000       2.7777777791E-003       8.6630596951E-003
       0.0000000000E+000       4.4797797343E-001       0.0000000000E+000       1.1566216330E+001       0.0000000000E+000       9.9999999878E-001       3.5394722709E+000       4.5230271416E+001       6.6666666667E-002       1.0000000000E-003       1.0000000000E-003       0.0000000000E+000       1.0000000000E+000       0.0000000000E+000       2.7777777791E-003       7.8734165133E-003
       0.0000000000E+000       4.5084191063E-001       0.0000000000E+000       1.1315657188E+001       0.0000000000E+000       9.9999999878E-001       3.5189414729E+000       4.7407543287E+001       6.6666666667E-002       1.0000000000E-003       1.0000000000E-003       0.0000000000E+000       1.0000000000E+000       0.0000000000E+000       2.7777777791E-003       7.1197640576E-003
       0.0000000000E+000       4.5358695766E-001       0.0000000000E+000       1.1055379746E+001       0.0000000000E+000       9.9999999878E-001       3.4862454021E+000       4.9598847085E+001       6.6666666667E-002       1.0000000000E-003       1.0000000000E-003       0.0000000000E+000       1.0000000000E+000       0.0000000000E+000       2.7777777791E-003       6.4032464280E-003
       0.0000000000E+000       4.5621714576E-001       0.0000000000E+000       1.0784723604E+001       0.0000000000E+000       9.9999999878E-001       3.4401163995E+000       5.1776543970E+001       6.6666666667E-002       1.0000000000E-003       1.0000000000E-003       0.0000000000E+000       1.0000000000E+000       0.0000000000E+000       2.7777777791E-003       5.7249226544E-003
       0.0000000000E+000       4.5873645099E-001       0.0000000000E+000       1.0503023678E+001       0.0000000000E+000       9.9999999878E-001       3.3792923273E+000       5.3905600274E+001       6.6666666667E-002       1.0000000000E-003       1.0000000000E-003       0.0000000000E+000       1.0000000000E+000       0.0000000000E+000       2.7777777791E-003       5.0857637063E-003
       0.0000000000E+000       4.6114878677E-001       0.0000000000E+000       1.0209633394E+001       0.0000000000E+000       9.9999999878E-001       3.3025792838E+000       5.5942847310E+001       6.6666666667E-002       1.0000000000E-003       1.0000000000E-003       0.0000000000E+000       1.0000000000E+000       0.0000000000E+000       2.7777777791E-003       4.4866442482E-003
       0.0000000000E+000       4.6345799731E-001       0.0000000000E+000       9.9039572272E+000       0.0000000000E+000       9.9999999878E-001       3.2089379154E+000       5.7836697602E+001       6.6666666667E-002       1.0000000000E-003       1.0000000000E-003       0.0000000000E+000       1.0000000000E+000       0.0000000000E+000       2.7777777791E-003       3.9283273833E-003
       0.0000000000E+000       4.6566785199E-001       0.0000000000E+000       9.5854943557E+000       0.0000000000E+000       9.9999999878E-001       3.0975954808E+000       5.9527640396E+001       6.6666666667E-002       1.0000000000E-003       1.0000000000E-003       0.0000000000E+000       1.0000000000E+000       0.0000000000E+000       2.7777777791E-003       3.4114402538E-003
       0.0000000000E+000       4.6778204052E-001       0.0000000000E+000       9.2538945422E+000       0.0000000000E+000       9.9999999878E-001       2.9681821417E+000       6.0949901698E+001       6.6666666667E-002       1.0000000000E-003       1.0000000000E-003       0.0000000000E+000       1.0000000000E+000       0.0000000000E+000       2.7777777791E-003       2.9364382479E-003
       0.0000000000E+000       4.6980416890E-001       0.0000000000E+000       8.9090257576E+000       0.0000000000E+000       9.9999999878E-001       2.8208836340E+000       6.2034650677E+001       6.6666666667E-002       1.0000000000E-003       1.0000000000E-003       0.0000000000E+000       1.0000000000E+000       0.0000000000E+000       2.7777777791E-003       2.5035560548E-003
       0.0000000000E+000       4.7173775606E-001       0.0000000000E+000       8.5510503546E+000       0.0000000000E+000       9.9999999878E-001       2.6565934795E+000       6.2715002615E+001       6.6666666667E-002       1.0000000000E-003       1.0000000000E-003       0.0000000000E+000       1.0000000000E+000       0.0000000000E+000       2.7777777791E-003       2.1127453759E-003
       0.0000000000E+000       4.7358623122E-001       0.0000000000E+000       8.1805026523E+000       0.0000000000E+000       9.9999999878E-001       2.4770375307E+000       6.2932747941E+001       6.6666666667E-002       1.0000000000E-003       1.0000000000E-003       0.0000000000E+000       1.0000000000E+000       0.0000000000E+000       2.7777777791E-003       1.7636021442E-003
       0.0000000000E+000       4.7535293177E-001       0.0000000000E+000       7.7983562074E+000       0.0000000000E+000       9.9999999878E-001       2.2848352982E+000       6.2646212962E+001       6.6666666667E-002       1.0000000000E-003       1.0000000000E-003       0.0000000000E+000       1.0000000000E+000       0.0000000000E+000       2.7777777791E-003       1.4552906524E-003
       0.0000000000E+000       4.7704110176E-001       0.0000000000E+000       7.4060652402E+000       0.0000000000E+000       9.9999999878E-001       2.0834615629E+000       6.1838024133E+001       6.6666666667E-002       1.0000000000E-003       1.0000000000E-003       0.0000000000E+000       1.0000000000E+000       0.0000000000E+000       2.7777777791E-003       1.1864772224E-003
       0.0000000000E+000       4.7865389090E-001       0.0000000000E+000       7.0055639039E+000       0.0000000000E+000       9.9999999878E-001       1.8770836760E+000       6.0521042160E+001       6.6666666667E-002       1.0000000000E-003       1.0000000000E-003       0.0000000000E+000       1.0000000000E+000       0.0000000000E+000       2.7777777791E-003       9.5529002453E-004
       0.0000000000E+000       4.8019435391E-001       0.0000000000E+000       6.5992115482E+000       0.0000000000E+000       9.9999999878E-001       1.6702763621E+000       5.8740680320E+001       6.6666666667E-002       1.0000000000E-003       1.0000000000E-003       0.0000000000E+000       1.0000000000E+000       0.0000000000E+000       2.7777777791E-003       7.5932175497E-004