 VARIABLES ="X","Y","U","W","P","C","T","k","eps", "v2","omega","nuSA","yplus","RHO","Pe","mu","mut"
 ZONE I=            98  J=            40  F=POINT 
       0.0000000000E+000      -1.0100607860E-003       0.0000000000E+000       6.2939208023E+001      -1.4006263115E+016       0.0000000000E+000       1.0000000000E+000       7.0159509028E+000       2.8131093392E+001       6.6666666667E-002       1.0000000000E-003       1.0000000000E-003       0.0000000000E+000       1.0000000000E+000       0.0000000000E+000       2.7777777778E-003       1.7913243913E-001
       0.0000000000E+000       1.0100607860E-003       0.0000000000E+000       6.2939208023E+001      -1.4006263115E+016       0.0000000000E+000       1.0000000000E+000       7.0159509028E+000       2.8131093392E+001       6.6666666667E-002       1.0000000000E-003       1.0000000000E-003       0.0000000000E+000       1.0000000000E+000       0.0000000000E+000       2.7777777778E-003       1.7913243913E-001
       0.0000000000E+000       3.1294375279E-003       0.0000000000E+000       6.2921080665E+001      -1.4006263115E+016       0.0000000000E+000       1.0000000000E+000       7.0671755319E+000       2.8458439937E+001       6.6666666667E-002       1.0000000000E-003       1.0000000000E-003       0.0000000000E+000       1.0000000000E+000       0.0000000000E+000       2.7777777778E-003       1.7963488109E-001
       0.0000000000E+000       5.4568238521E-003       0.0000000000E+000       6.2884302928E+001      -1.4006263115E+016       0.0000000000E+000       1.0000000000E+000       7.1710237923E+000       2.9125617234E+001       6.6666666667E-002       1.0000000000E-003       1.0000000000E-003       0.0000000000E+000       1.0000000000E+000       0.0000000000E+000       2.7777777778E-003       1.8065122079E-001
       0.0000000000E+000       8.0120745591E-003       0.0000000000E+000       6.2828591119E+001      -1.4006263115E+016       0.0000000000E+000       1.0000000000E+000       7.3278945278E+000       3.0141529955E+001       6.6666666667E-002       1.0000000000E-003       1.0000000000E-003       0.0000000000E+000       1.0000000000E+000       0.0000000000E+000       2.7777777778E-003       1.8218532194E-001
       0.0000000000E+000       1.0816823264E-002       0.0000000000E+000       6.2753907361E+001      -1.4006263115E+016       0.0000000000E+000       1.0000000000E+000       7.5370401266E+000       3.1510686573E+001       6.6666666667E-002       1.0000000000E-003       1.0000000000E-003       0.0000000000E+000       1.0000000000E+000       0.0000000000E+000       2.7777777778E-003       1.8422881416E-001
       0.0000000000E+000       1.3894617523E-002       0.0000000000E+000       6.2660451206E+001      -1.4006263115E+016       0.0000000000E+000       1.0000000000E+000       7.7966532038E+000       3.3233476226E+001       6.6666666667E-002       1.0000000000E-003       1.0000000000E-003       0.0000000000E+000       1.0000000000E+000       0.0000000000E+000       2.7777777778E-003       1.8675912107E-001
       0.0000000000E+000       1.7271059037E-002       0.0000000000E+000       6.2548637076E+001      -1.4006263115E+016       0.0000000000E+000       1.0000000000E+000       8.1040149590E+000       3.5306684745E+001       6.6666666667E-002       1.0000000000E-003       1.0000000000E-003       0.0000000000E+000       1.0000000000E+000       0.0000000000E+000       2.7777777778E-003       1.8973847314E-001
       0.0000000000E+000       2.0973947879E-002       0.0000000000E+000       6.2419060037E+001      -1.4006263115E+016       0.0000000000E+000       1.0000000000E+000       8.4556907282E+000       3.7724216207E+001       6.6666666667E-002       1.0000000000E-003       1.0000000000E-003       0.0000000000E+000       1.0000000000E+000       0.0000000000E+000       2.7777777778E-003       1.9311465799E-001
       0.0000000000E+000       2.5033429320E-002       0.0000000000E+000       6.2272454307E+001      -1.4006263115E+016       0.0000000000E+000       1.0000000000E+000       8.8477476865E+000       4.0477948017E+001       6.6666666667E-002       1.0000000000E-003       1.0000000000E-003       0.0000000000E+000       1.0000000000E+000       0.0000000000E+000       2.7777777778E-003       1.9682344218E-001
       0.0000000000E+000       2.9482141392E-002       0.0000000000E+000       6.2109649769E+001      -1.4006263115E+016       0.0000000000E+000       1.0000000000E+000       9.2759696300E+000       4.3558625509E+001       6.6666666667E-002       1.0000000000E-003       1.0000000000E-003       0.0000000000E+000       1.0000000000E+000       0.0000000000E+000       2.7777777778E-003       2.0079213444E-001
       0.0000000000E+000       3.4355360827E-002       0.0000000000E+000       6.1931531253E+001      -1.4006263115E+016       0.0000000000E+000       1.0000000000E+000       9.7360482010E+000       4.6956705052E+001       6.6666666667E-002       1.0000000000E-003       1.0000000000E-003       0.0000000000E+000       1.0000000000E+000       0.0000000000E+000       2.7777777778E-003       2.0494355603E-001
       0.0000000000E+000       3.9691144380E-002       0.0000000000E+000       6.1739003887E+001      -1.4006263115E+016       0.0000000000E+000       1.0000000000E+000       1.0223737833E+001       5.0663078096E+001       6.6666666667E-002       1.0000000000E-003       1.0000000000E-003       0.0000000000E+000       1.0000000000E+000       0.0000000000E+000       2.7777777778E-003       2.0919977422E-001
       0.0000000000E+000       4.5530461881E-002       0.0000000000E+000       6.1532966145E+001      -1.4006263115E+016       0.0000000000E+000       1.0000000000E+000       1.0734969978E+001       5.4669640765E+001       6.6666666667E-002       1.0000000000E-003       1.0000000000E-003       0.0000000000E+000       1.0000000000E+000       0.0000000000E+000       2.7777777778E-003       2.1348519155E-001
       0.0000000000E+000       5.1917316536E-002       0.0000000000E+000       6.1314290661E+001      -1.4006263115E+016       0.0000000000E+000       1.0000000000E+000       1.1265928675E+001       5.8969703309E+001       6.6666666667E-002       1.0000000000E-003       1.0000000000E-003       0.0000000000E+000       1.0000000000E+000       0.0000000000E+000       2.7777777778E-003       2.1772883059E-001
       0.0000000000E+000       5.8898847137E-002       0.0000000000E+000       6.1083811943E+001      -1.4006263115E+016       0.0000000000E+000       1.0000000000E+000       1.1813093439E+001       6.3558252492E+001       6.6666666667E-002       1.0000000000E-003       1.0000000000E-003       0.0000000000E+000       1.0000000000E+000       0.0000000000E+000       2.7777777778E-003       2.2186584339E-001
       0.0000000000E+000       6.6525405813E-002       0.0000000000E+000       6.0842319630E+001      -1.4006263115E+016       0.0000000000E+000       1.0000000000E+000       1.2373256950E+001       6.8432102568E+001       6.6666666667E-002       1.0000000000E-003       1.0000000000E-003       0.0000000000E+000       1.0000000000E+000       0.0000000000E+000       2.7777777778E-003       2.2583833380E-001
       0.0000000000E+000       7.4850603903E-002       0.0000000000E+000       6.0590555891E+001      -1.4006263115E+016       0.0000000000E+000       1.0000000000E+000       1.2943524972E+001       7.3589980081E+001       6.6666666667E-002       1.0000000000E-003       1.0000000000E-003       0.0000000000E+000       1.0000000000E+000       0.0000000000E+000       2.7777777778E-003       2.2959561820E-001
       0.0000000000E+000       8.3931317363E-002       0.0000000000E+000       6.0329215676E+001      -1.4006263115E+016       0.0000000000E+000       1.0000000000E+000       1.3521304473E+001       7.9032468549E+001       6.6666666667E-002       1.0000000000E-003       1.0000000000E-003       0.0000000000E+000       1.0000000000E+000       0.0000000000E+000       2.7777777778E-003       2.3309436739E-001
       0.0000000000E+000       9.3827641929E-002       0.0000000000E+000       6.0058948774E+001      -1.4006263115E+016       0.0000000000E+000       1.0000000000E+000       1.4104282898E+001       8.4761950543E+001       6.6666666667E-002       1.0000000000E-003       1.0000000000E-003       0.0000000000E+000       1.0000000000E+000       0.0000000000E+000       2.7777777778E-003       2.3629829592E-001
       0.0000000000E+000       1.0460278706E-001       0.0000000000E+000       5.9780362808E+001      -1.4006263115E+016       0.0000000000E+000       1.0000000000E+000       1.4690412991E+001       9.0782624426E+001       6.6666666667E-002       1.0000000000E-003       1.0000000000E-003       0.0000000000E+000       1.0000000000E+000       0.0000000000E+000       2.7777777778E-003       2.3917775081E-001
       0.0000000000E+000       1.1632289650E-001       0.0000000000E+000       5.9494026671E+001      -1.4006263115E+016       0.0000000000E+000       1.0000000000E+000       1.5277888051E+001       9.7100400315E+001       6.6666666667E-002       1.0000000000E-003       1.0000000000E-003       0.0000000000E+000       1.0000000000E+000       0.0000000000E+000       2.7777777778E-003       2.4170925781E-001
       0.0000000000E+000       1.2905678245E-001       0.0000000000E+000       5.9200474062E+001      -1.4006263115E+016       0.0000000000E+000       1.0000000000E+000       1.5865106477E+001       1.0372280409E+002       6.6666666667E-002       1.0000000000E-003       1.0000000000E-003       0.0000000000E+000       1.0000000000E+000       0.0000000000E+000       2.7777777778E-003       2.4387466572E-001
       0.0000000000E+000       1.4287555919E-001       0.0000000000E+000       5.8900206836E+001      -1.4006263115E+016       0.0000000000E+000       1.0000000000E+000       1.6450663187E+001       1.1065893158E+002       6.6666666667E-002       1.0000000000E-003       1.0000000000E-003       0.0000000000E+000       1.0000000000E+000       0.0000000000E+000       2.7777777778E-003       2.4566096514E-001
       0.0000000000E+000       1.5785216215E-001       0.0000000000E+000       5.8593698123E+001      -1.4006263115E+016       0.0000000000E+000       1.0000000000E+000       1.7033336313E+001       1.1791938459E+002       6.6666666667E-002       1.0000000000E-003       1.0000000000E-003       0.0000000000E+000       1.0000000000E+000       0.0000000000E+000       2.7777777778E-003       2.4705993356E-001
       0.0000000000E+000       1.7406073782E-001       0.0000000000E+000       5.8281395087E+001      -1.4006263115E+016       0.0000000000E+000       1.0000000000E+000       1.7612061631E+001       1.2551621979E+002       6.6666666667E-002       1.0000000000E-003       1.0000000000E-003       0.0000000000E+000       1.0000000000E+000       0.0000000000E+000       2.7777777778E-003       2.4806738230E-001
       0.0000000000E+000       1.9157589134E-001       0.0000000000E+000       5.7963721239E+001      -1.4006263115E+016       0.0000000000E+000       1.0000000000E+000       1.8185918786E+001       1.3346291037E+002       6.6666666667E-002       1.0000000000E-003       1.0000000000E-003       0.0000000000E+000       1.0000000000E+000       0.0000000000E+000       2.7777777778E-003       2.4868272045E-001
       0.0000000000E+000       2.1047177964E-001       0.0000000000E+000       5.7641078383E+001      -1.4006263115E+016       0.0000000000E+000       1.0000000000E+000       1.8754119168E+001       1.4177431640E+002       6.6666666667E-002       1.0000000000E-003       1.0000000000E-003       0.0000000000E+000       1.0000000000E+000       0.0000000000E+000       2.7777777778E-003       2.4890853190E-001
       0.0000000000E+000       2.3082104100E-001       0.0000000000E+000       5.7313848183E+001      -1.4006263115E+016       0.0000000000E+000       1.0000000000E+000       1.9315994261E+001       1.5046666469E+002       6.6666666667E-002       1.0000000000E-003       1.0000000000E-003       0.0000000000E+000       1.0000000000E+000       0.0000000000E+000       2.7777777778E-003       2.4875014389E-001
       0.0000000000E+000       2.5269355587E-001       0.0000000000E+000       5.6982393390E+001      -1.4006263115E+016       0.0000000000E+000       1.0000000000E+000       1.9870985638E+001       1.5955753741E+002       6.6666666667E-002       1.0000000000E-003       1.0000000000E-003       0.0000000000E+000       1.0000000000E+000       0.0000000000E+000       2.7777777778E-003       2.4821522564E-001
       0.0000000000E+000       2.7615503885E-001       0.0000000000E+000       5.6647058734E+001      -1.4006263115E+016       0.0000000000E+000       1.0000000000E+000       2.0418636091E+001       1.6906586886E+002       6.6666666667E-002       1.0000000000E-003       1.0000000000E-003       0.0000000000E+000       1.0000000000E+000       0.0000000000E+000       2.7777777778E-003       2.4731340882E-001
       0.0000000000E+000       3.0126546880E-001       0.0000000000E+000       5.6308171528E+001      -1.4006263115E+016       0.0000000000E+000       1.0000000000E+000       2.0958581696E+001       1.7901194999E+002       6.6666666667E-002       1.0000000000E-003       1.0000000000E-003       0.0000000000E+000       1.0000000000E+000       0.0000000000E+000       2.7777777778E-003       2.4605593118E-001
       0.0000000000E+000       3.2807737251E-001       0.0000000000E+000       5.5966042000E+001      -1.4006263115E+016       0.0000000000E+000       1.0000000000E+000       2.1490544690E+001       1.8941744014E+002       6.6666666667E-002       1.0000000000E-003       1.0000000000E-003       0.0000000000E+000       1.0000000000E+000       0.0000000000E+000       2.7777777778E-003       2.4445530542E-001
       0.0000000000E+000       3.5663398698E-001       0.0000000000E+000       5.5620963373E+001      -1.4006263115E+016       0.0000000000E+000       1.0000000000E+000       2.2014326974E+001       2.0030538604E+002       6.6666666667E-002       1.0000000000E-003       1.0000000000E-003       0.0000000000E+000       1.0000000000E+000       0.0000000000E+000       2.7777777778E-003       2.4252501457E-001
       0.0000000000E+000       3.8696733669E-001       0.0000000000E+000       5.5273211742E+001      -1.4006263115E+016       0.0000000000E+000       1.0000000000E+000       2.2529804111E+001       2.1170024796E+002       6.6666666667E-002       1.0000000000E-003       1.0000000000E-003       0.0000000000E+000       1.0000000000E+000       0.0000000000E+000       2.7777777778E-003       2.4027923581E-001
       0.0000000000E+000       4.1909627393E-001       0.0000000000E+000       5.4923045747E+001      -1.4006263115E+016       0.0000000000E+000       1.0000000000E+000       2.3036919707E+001       2.2362793336E+002       6.6666666667E-002       1.0000000000E-003       1.0000000000E-003       0.0000000000E+000       1.0000000000E+000       0.0000000000E+000       2.7777777778E-003       2.3773259460E-001
       0.0000000000E+000       4.5302454235E-001       0.0000000000E+000       5.4570706086E+001      -1.4006263115E+016       0.0000000000E+000       1.0000000000E+000       2.3535680073E+001       2.3611583850E+002       6.6666666667E-002       1.0000000000E-003       1.0000000000E-003       0.0000000000E+000       1.0000000000E+000       0.0000000000E+000       2.7777777778E-003       2.3489995098E-001
       0.0000000000E+000       4.8873893491E-001       0.0000000000E+000       5.4216414881E+001      -1.4006263115E+016       0.0000000000E+000       1.0000000000E+000       2.4026149096E+001       2.4919289876E+002       6.6666666667E-002       1.0000000000E-003       1.0000000000E-003       0.0000000000E+000       1.0000000000E+000       0.0000000000E+000       2.7777777778E-003       2.3179621933E-001
       0.0000000000E+000       5.2620762723E-001       0.0000000000E+000       5.3860374941E+001      -1.4006263115E+016       0.0000000000E+000       1.0000000000E+000       2.4508443265E+001       2.6288964872E+002       6.6666666667E-002       1.0000000000E-003       1.0000000000E-003       0.0000000000E+000       1.0000000000E+000       0.0000000000E+000       2.7777777778E-003       2.2843622254E-001
       0.0000000000E+000       5.6537877348E-001       0.0000000000E+000       5.3502768928E+001      -1.4006263115E+016       0.0000000000E+000       1.0000000000E+000       2.4982726803E+001       2.7723829313E+002       6.6666666667E-002       1.0000000000E-003       1.0000000000E-003       0.0000000000E+000       1.0000000000E+000       0.0000000000E+000       2.7777777778E-003       2.2483458070E-001
       0.0000000000E+000       6.0617945461E-001       0.0000000000E+000       5.3143758468E+001      -1.4006263115E+016       0.0000000000E+000       1.0000000000E+000       2.5449206910E+001       2.9227279044E+002       6.6666666667E-002       1.0000000000E-003       1.0000000000E-003       0.0000000000E+000       1.0000000000E+000       0.0000000000E+000       2.7777777778E-003       2.2100563343E-001
       0.0000000000E+000       6.4851506570E-001       0.0000000000E+000       5.2783483226E+001      -1.4006263115E+016       0.0000000000E+000       1.0000000000E+000       2.5908129073E+001       3.0802895055E+002       6.6666666667E-002       1.0000000000E-003       1.0000000000E-003       0.0000000000E+000       1.0000000000E+000       0.0000000000E+000       2.7777777778E-003       2.1696339438E-001
       0.0000000000E+000       6.9226922041E-001       0.0000000000E+000       5.2422059974E+001      -1.4006263115E+016       0.0000000000E+000       1.0000000000E+000       2.6359772480E+001       3.2454454884E+002       6.6666666667E-002       1.0000000000E-003       1.0000000000E-003       0.0000000000E+000       1.0000000000E+000       0.0000000000E+000       2.7777777778E-003       2.1272153484E-001
       0.0000000000E+000       7.3730423491E-001       0.0000000000E+000       5.2059581667E+001      -1.4006263115E+016       0.0000000000E+000       1.0000000000E+000       2.6804445538E+001       3.4185945889E+002       6.6666666667E-002       1.0000000000E-003       1.0000000000E-003       0.0000000000E+000       1.0000000000E+000       0.0000000000E+000       2.7777777778E-003       2.0829339345E-001
       0.0000000000E+000       7.8346223196E-001       0.0000000000E+000       5.1696116553E+001      -1.4006263115E+016       0.0000000000E+000       1.0000000000E+000       2.7242481518E+001       3.6001580650E+002       6.6666666667E-002       1.0000000000E-003       1.0000000000E-003       0.0000000000E+000       1.0000000000E+000       0.0000000000E+000       2.7777777778E-003       2.0369200710E-001
       0.0000000000E+000       8.3056687844E-001       0.0000000000E+000       5.1331707317E+001      -1.4006263115E+016       0.0000000000E+000       1.0000000000E+000       2.7674234352E+001       3.7905814805E+002       6.6666666667E-002       1.0000000000E-003       1.0000000000E-003       0.0000000000E+000       1.0000000000E+000       0.0000000000E+000       2.7777777778E-003       1.9893015866E-001
       0.0000000000E+000       8.7842573817E-001       0.0000000000E+000       5.0966370289E+001      -1.4006263115E+016       0.0000000000E+000       1.0000000000E+000       2.8100074609E+001       3.9903367666E+002       6.6666666667E-002       1.0000000000E-003       1.0000000000E-003       0.0000000000E+000       1.0000000000E+000       0.0000000000E+000       2.7777777778E-003       1.9402043593E-001
       0.0000000000E+000       9.2683318857E-001       0.0000000000E+000       5.0600094692E+001      -1.4006263115E+016       0.0000000000E+000       1.0000000000E+000       2.8520385662E+001       4.1999245999E+002       6.6666666667E-002       1.0000000000E-003       1.0000000000E-003       0.0000000000E+000       1.0000000000E+000       0.0000000000E+000       2.7777777778E-003       1.8897529655E-001
       0.0000000000E+000       9.7557381694E-001       0.0000000000E+000       5.0232841947E+001      -1.4006263115E+016       0.0000000000E+000       1.0000000000E+000       2.8935560080E+001       4.4198771433E+002       6.6666666667E-002       1.0000000000E-003       1.0000000000E-003       0.0000000000E+000       1.0000000000E+000       0.0000000000E+000       2.7777777778E-003       1.8380713363E-001
       0.0000000000E+000       1.0244261831E+000       0.0000000000E+000       4.9864545019E+001      -1.4006263115E+016       0.0000000000E+000       1.0000000000E+000       2.9345996231E+001       4.6507612003E+002       6.6666666667E-002       1.0000000000E-003       1.0000000000E-003       0.0000000000E+000       1.0000000000E+000       0.0000000000E+000       2.7777777778E-003       1.7852833725E-001
       0.0000000000E+000       1.0731668114E+000       0.0000000000E+000       4.9495107769E+001      -1.4006263115E+016       0.0000000000E+000       1.0000000000E+000       2.9752095107E+001       4.8931818445E+002       6.6666666667E-002       1.0000000000E-003       1.0000000000E-003       0.0000000000E+000       1.0000000000E+000       0.0000000000E+000       2.7777777778E-003       1.7315134745E-001
       0.0000000000E+000       1.1215742618E+000       0.0000000000E+000       4.9124404317E+001      -1.4006263115E+016       0.0000000000E+000       1.0000000000E+000       3.0154257348E+001       5.1477865950E+002       6.6666666667E-002       1.0000000000E-003       1.0000000000E-003       0.0000000000E+000       1.0000000000E+000       0.0000000000E+000       2.7777777778E-003       1.6768869526E-001
       0.0000000000E+000       1.1694331216E+000       0.0000000000E+000       4.8752278358E+001      -1.4006263115E+016       0.0000000000E+000       1.0000000000E+000       3.0552880444E+001       5.4152702214E+002       6.6666666667E-002       1.0000000000E-003       1.0000000000E-003       0.0000000000E+000       1.0000000000E+000       0.0000000000E+000       2.7777777778E-003       1.6215302906E-001
       0.0000000000E+000       1.2165377680E+000       0.0000000000E+000       4.8378542408E+001      -1.4006263115E+016       0.0000000000E+000       1.0000000000E+000       3.0948356066E+001       5.6963802806E+002       6.6666666667E-002       1.0000000000E-003       1.0000000000E-003       0.0000000000E+000       1.0000000000E+000       0.0000000000E+000       2.7777777778E-003       1.5655712472E-001
       0.0000000000E+000       1.2626957651E+000       0.0000000000E+000       4.8002976937E+001      -1.4006263115E+016       0.0000000000E+000       1.0000000000E+000       3.1341067476E+001       5.9919235026E+002       6.6666666667E-002       1.0000000000E-003       1.0000000000E-003       0.0000000000E+000       1.0000000000E+000       0.0000000000E+000       2.7777777778E-003       1.5091387853E-001
       0.0000000000E+000       1.3077307796E+000       0.0000000000E+000       4.7625329326E+001      -1.4006263115E+016       0.0000000000E+000       1.0000000000E+000       3.1731386949E+001       6.3027731712E+002       6.6666666667E-002       1.0000000000E-003       1.0000000000E-003       0.0000000000E+000       1.0000000000E+000       0.0000000000E+000       2.7777777778E-003       1.4523628342E-001
       0.0000000000E+000       1.3514849343E+000       0.0000000000E+000       4.7245312594E+001      -1.4006263115E+016       0.0000000000E+000       1.0000000000E+000       3.2119673112E+001       6.6298776725E+002       6.6666666667E-002       1.0000000000E-003       1.0000000000E-003       0.0000000000E+000       1.0000000000E+000       0.0000000000E+000       2.7777777778E-003       1.3953738936E-001
       0.0000000000E+000       1.3938205454E+000       0.0000000000E+000       4.6862603847E+001      -1.4006263115E+016       0.0000000000E+000       1.0000000000E+000       3.2506268101E+001       6.9742704192E+002       6.6666666667E-002       1.0000000000E-003       1.0000000000E-003       0.0000000000E+000       1.0000000000E+000       0.0000000000E+000       2.7777777778E-003       1.3383024967E-001
       0.0000000000E+000       1.4346212265E+000       0.0000000000E+000       4.6476842346E+001      -1.4006263115E+016       0.0000000000E+000       1.0000000000E+000       3.2891494432E+001       7.3370814075E+002       6.6666666667E-002       1.0000000000E-003       1.0000000000E-003       0.0000000000E+000       1.0000000000E+000       0.0000000000E+000       2.7777777778E-003       1.2812785583E-001
       0.0000000000E+000       1.4737923728E+000       0.0000000000E+000       4.6087627133E+001      -1.4006263115E+016       0.0000000000E+000       1.0000000000E+000       3.3275651406E+001       7.7195507129E+002       6.6666666667E-002       1.0000000000E-003       1.0000000000E-003       0.0000000000E+000       1.0000000000E+000       0.0000000000E+000       2.7777777778E-003       1.2244306332E-001
       0.0000000000E+000       1.5112610651E+000       0.0000000000E+000       4.5694514105E+001      -1.4006263115E+016       0.0000000000E+000       1.0000000000E+000       3.3659010913E+001       8.1230443013E+002       6.6666666667E-002       1.0000000000E-003       1.0000000000E-003       0.0000000000E+000       1.0000000000E+000       0.0000000000E+000       2.7777777778E-003       1.1678851173E-001
       0.0000000000E+000       1.5469754577E+000       0.0000000000E+000       4.5297012424E+001      -1.4006263115E+016       0.0000000000E+000       1.0000000000E+000       3.4041812390E+001       8.5490726149E+002       6.6666666667E-002       1.0000000000E-003       1.0000000000E-003       0.0000000000E+000       1.0000000000E+000       0.0000000000E+000       2.7777777778E-003       1.1117654218E-001
       0.0000000000E+000       1.5809037261E+000       0.0000000000E+000       4.4894580126E+001      -1.4006263115E+016       0.0000000000E+000       1.0000000000E+000       3.4424256681E+001       8.9993124911E+002       6.6666666667E-002       1.0000000000E-003       1.0000000000E-003       0.0000000000E+000       1.0000000000E+000       0.0000000000E+000       2.7777777778E-003       1.0561911508E-001
       0.0000000000E+000       1.6130326633E+000       0.0000000000E+000       4.4486618780E+001      -1.4006263115E+016       0.0000000000E+000       1.0000000000E+000       3.4806498450E+001       9.4756331068E+002       6.6666666667E-002       1.0000000000E-003       1.0000000000E-003       0.0000000000E+000       1.0000000000E+000       0.0000000000E+000       2.7777777778E-003       1.0012773124E-001
       0.0000000000E+000       1.6433660130E+000       0.0000000000E+000       4.4072466965E+001      -1.4006263115E+016       0.0000000000E+000       1.0000000000E+000       3.5188636722E+001       9.9801267918E+002       6.6666666667E-002       1.0000000000E-003       1.0000000000E-003       0.0000000000E+000       1.0000000000E+000       0.0000000000E+000       2.7777777778E-003       9.4713358789E-002
       0.0000000000E+000       1.6719226275E+000       0.0000000000E+000       4.3651392374E+001      -1.4006263115E+016       0.0000000000E+000       1.0000000000E+000       3.5570702969E+001       1.0515145764E+003       6.6666666667E-002       1.0000000000E-003       1.0000000000E-003       0.0000000000E+000       1.0000000000E+000       0.0000000000E+000       2.7777777778E-003       8.9386368153E-002
       0.0000000000E+000       1.6987345312E+000       0.0000000000E+000       4.3222582195E+001      -1.4006263115E+016       0.0000000000E+000       1.0000000000E+000       3.5952646007E+001       1.1083346083E+003       6.6666666667E-002       1.0000000000E-003       1.0000000000E-003       0.0000000000E+000       1.0000000000E+000       0.0000000000E+000       2.7777777778E-003       8.4156476932E-002
       0.0000000000E+000       1.7238449611E+000       0.0000000000E+000       4.2785131410E+001      -1.4006263115E+016       0.0000000000E+000       1.0000000000E+000       3.6334312683E+001       1.1687740477E+003       6.6666666667E-002       1.0000000000E-003       1.0000000000E-003       0.0000000000E+000       1.0000000000E+000       0.0000000000E+000       2.7777777778E-003       7.9032705722E-002
       0.0000000000E+000       1.7473064441E+000       0.0000000000E+000       4.2338028540E+001      -1.4006263115E+016       0.0000000000E+000       1.0000000000E+000       3.6715423010E+001       1.2331761871E+003       6.6666666667E-002       1.0000000000E-003       1.0000000000E-003       0.0000000000E+000       1.0000000000E+000       0.0000000000E+000       2.7777777778E-003       7.4023347063E-002
       0.0000000000E+000       1.7691789590E+000       0.0000000000E+000       4.1880138184E+001      -1.4006263115E+016       0.0000000000E+000       1.0000000000E+000       3.7095537916E+001       1.3019340594E+003       6.6666666667E-002       1.0000000000E-003       1.0000000000E-003       0.0000000000E+000       1.0000000000E+000       0.0000000000E+000       2.7777777778E-003       6.9135945020E-002
       0.0000000000E+000       1.7895282204E+000       0.0000000000E+000       4.1410179583E+001      -1.4006263115E+016       0.0000000000E+000       1.0000000000E+000       3.7474017103E+001       1.3754998011E+003       6.6666666667E-002       1.0000000000E-003       1.0000000000E-003       0.0000000000E+000       1.0000000000E+000       0.0000000000E+000       2.7777777778E-003       6.4377288913E-002
       0.0000000000E+000       1.8084241087E+000       0.0000000000E+000       4.0926700138E+001      -1.4006263115E+016       0.0000000000E+000       1.0000000000E+000       3.7849963560E+001       1.4543960443E+003       6.6666666667E-002       1.0000000000E-003       1.0000000000E-003       0.0000000000E+000       1.0000000000E+000       0.0000000000E+000       2.7777777778E-003       5.9753420641E-002