 VARIABLES ="X","Y","U","W","C","T","k","eps", "v2","omega","nuSA","yplus","RHO","Pe","mu","mut","lamcp","cp","alphat","kt","epst"
 ZONE I=            98  J=           104  F=POINT 
       0.0000000000E+000      -4.6333968368E-003       0.0000000000E+000       1.8409713484E+001       0.0000000000E+000       9.9999999878E-001       9.4200169862E-001       2.1518217794E+000       6.6666666667E-002       1.0000000000E-003       1.0000000000E-003       0.0000000000E+000       1.0000000000E+000       0.0000000000E+000       2.7777777791E-003       4.3895668426E-002       8.6953103861E-004       1.0000000035E+000       2.2266022183E-001       1.5010259730E-005       1.1207063980E-006
       0.0000000000E+000       4.6333968368E-003       0.0000000000E+000       1.8409713484E+001       0.0000000000E+000       9.9999999878E-001       9.4200169862E-001       2.1518217794E+000       6.6666666667E-002       1.0000000000E-003       1.0000000000E-003       0.0000000000E+000       1.0000000000E+000       0.0000000000E+000       2.7777777791E-003       4.3895668426E-002       8.6953103861E-004       1.0000000035E+000       2.2266022183E-001       1.5010259730E-005       1.1207063980E-006
       0.0000000000E+000       1.3960125430E-002       0.0000000000E+000       1.8406004079E+001       0.0000000000E+000       9.9999999878E-001       9.4472809964E-001       2.1622941966E+000       6.6666666667E-002       1.0000000000E-003       1.0000000000E-003       0.0000000000E+000       1.0000000000E+000       0.0000000000E+000       2.7777777791E-003       4.3748517555E-002       8.6953103861E-004       1.0000000035E+000       2.2188578897E-001       1.5010175076E-005       1.1207756484E-006
       0.0000000000E+000       2.3401918894E-002       0.0000000000E+000       1.8398423304E+001       0.0000000000E+000       9.9999999878E-001       9.5029256087E-001       2.1837234094E+000       6.6666666667E-002       1.0000000000E-003       1.0000000000E-003       0.0000000000E+000       1.0000000000E+000       0.0000000000E+000       2.7777777791E-003       4.3626846460E-002       8.6953103861E-004       1.0000000035E+000       2.2152877919E-001       1.5010019873E-005       1.1209310592E-006
       0.0000000000E+000       3.2948914513E-002       0.0000000000E+000       1.8386828302E+001       0.0000000000E+000       9.9999999878E-001       9.5878507852E-001       2.2165727553E+000       6.6666666667E-002       1.0000000000E-003       1.0000000000E-003       0.0000000000E+000       1.0000000000E+000       0.0000000000E+000       2.7777777791E-003       4.3530511402E-002       8.6953103861E-004       1.0000000035E+000       2.2159706285E-001       1.5009808099E-005       1.1211901720E-006
       0.0000000000E+000       4.2590763245E-002       0.0000000000E+000       1.8371097332E+001       0.0000000000E+000       9.9999999878E-001       9.7027187979E-001       2.2612819768E+000       6.6666666667E-002       1.0000000000E-003       1.0000000000E-003       0.0000000000E+000       1.0000000000E+000       0.0000000000E+000       2.7777777791E-003       4.3458827385E-002       8.6953103861E-004       1.0000000035E+000       2.2209200610E-001       1.5009551021E-005       1.1215694457E-006
       0.0000000000E+000       5.2316670463E-002       0.0000000000E+000       1.8351131304E+001       0.0000000000E+000       9.9999999878E-001       9.8479398638E-001       2.3182653907E+000       6.6666666667E-002       1.0000000000E-003       1.0000000000E-003       0.0000000000E+000       1.0000000000E+000       0.0000000000E+000       2.7777777791E-003       4.3410505492E-002       8.6953103861E-004       1.0000000035E+000       2.2300806862E-001       1.5009256738E-005       1.1220840328E-006
       0.0000000000E+000       6.2115441043E-002       0.0000000000E+000       1.8326854765E+001       0.0000000000E+000       9.9999999878E-001       1.0023665291E+000       2.3879108991E+000       6.6666666667E-002       1.0000000000E-003       1.0000000000E-003       0.0000000000E+000       1.0000000000E+000       0.0000000000E+000       2.7777777791E-003       4.3383598720E-002       8.6953103861E-004       1.0000000035E+000       2.2433263157E-001       1.5008930196E-005       1.1227475925E-006
       0.0000000000E+000       7.1975528421E-002       0.0000000000E+000       1.8298216281E+001       0.0000000000E+000       9.9999999878E-001       1.0229788697E+000       2.4705800526E+000       6.6666666667E-002       1.0000000000E-003       1.0000000000E-003       0.0000000000E+000       1.0000000000E+000       0.0000000000E+000       2.7777777791E-003       4.3375466082E-002       8.6953103861E-004       1.0000000035E+000       2.2604606885E-001       1.5008573098E-005       1.1235721543E-006
       0.0000000000E+000       8.1885087210E-002       0.0000000000E+000       1.8265188157E+001       0.0000000000E+000       9.9999999878E-001       1.0465955340E+000       2.5666093420E+000       6.6666666667E-002       1.0000000000E-003       1.0000000000E-003       0.0000000000E+000       1.0000000000E+000       0.0000000000E+000       2.7777777791E-003       4.3382764165E-002       8.6953103861E-004       1.0000000035E+000       2.2812206222E-001       1.5008183951E-005       1.1245680390E-006
       0.0000000000E+000       9.1832028879E-002       0.0000000000E+000       1.8227765534E+001       0.0000000000E+000       9.9999999878E-001       1.0731579026E+000       2.6763128292E+000       6.6666666667E-002       1.0000000000E-003       1.0000000000E-003       0.0000000000E+000       1.0000000000E+000       0.0000000000E+000       2.7777777791E-003       4.3401472601E-002       8.6953103861E-004       1.0000000035E+000       2.3052814057E-001       1.5007758204E-005       1.1257438401E-006
       0.0000000000E+000       1.0180407995E-001       0.0000000000E+000       1.8185964890E+001       0.0000000000E+000       9.9999999878E-001       1.1025865522E+000       2.7999861257E+000       6.6666666667E-002       1.0000000000E-003       1.0000000000E-003       0.0000000000E+000       1.0000000000E+000       0.0000000000E+000       2.7777777791E-003       4.3426955715E-002       8.6953103861E-004       1.0000000035E+000       2.3322640863E-001       1.5007288713E-005       1.1271064677E-006
       0.0000000000E+000       1.1178884212E-001       0.0000000000E+000       1.8139822061E+001       0.0000000000E+000       9.9999999878E-001       1.1347840957E+000       2.9379116270E+000       6.6666666667E-002       1.0000000000E-003       1.0000000000E-003       0.0000000000E+000       1.0000000000E+000       0.0000000000E+000       2.7777777791E-003       4.3454057982E-002       8.6953103861E-004       1.0000000035E+000       2.3617453594E-001       1.5006766608E-005       1.1286601167E-006
       0.0000000000E+000       1.2177385375E-001       0.0000000000E+000       1.8089389883E+001       0.0000000000E+000       9.9999999878E-001       1.1696383451E+000       3.0903648102E+000       6.6666666667E-002       1.0000000000E-003       1.0000000000E-003       0.0000000000E+000       1.0000000000E+000       0.0000000000E+000       2.7777777791E-003       4.3477226947E-002       8.6953103861E-004       1.0000000035E+000       2.3932662424E-001       1.5006180688E-005       1.1304071967E-006
       0.0000000000E+000       1.3174665193E-001       0.0000000000E+000       1.8034735600E+001       0.0000000000E+000       9.9999999878E-001       1.2070256104E+000       3.2576213312E+000       6.6666666667E-002       1.0000000000E-003       1.0000000000E-003       0.0000000000E+000       1.0000000000E+000       0.0000000000E+000       2.7777777791E-003       4.3490654572E-002       8.6953103861E-004       1.0000000035E+000       2.4263417533E-001       1.5005517772E-005       1.1323486515E-006
       0.0000000000E+000       1.4169483466E-001       0.0000000000E+000       1.7975938171E+001       0.0000000000E+000       9.9999999878E-001       1.2468139638E+000       3.4399646219E+000       6.6666666667E-002       1.0000000000E-003       1.0000000000E-003       0.0000000000E+000       1.0000000000E+000       0.0000000000E+000       2.7777777791E-003       4.3488427017E-002       8.6953103861E-004       1.0000000035E+000       2.4604705481E-001       1.5004763043E-005       1.1344841497E-006
       0.0000000000E+000       1.5160612229E-001       0.0000000000E+000       1.7913085597E+001       0.0000000000E+000       9.9999999878E-001       1.2888663196E+000       3.6376936870E+000       6.6666666667E-002       1.0000000000E-003       1.0000000000E-003       0.0000000000E+000       1.0000000000E+000       0.0000000000E+000       2.7777777791E-003       4.3464673281E-002       8.6953103861E-004       1.0000000035E+000       2.4951468957E-001       1.5003900382E-005       1.1368096162E-006
       0.0000000000E+000       1.6146841776E-001       0.0000000000E+000       1.7846272361E+001       0.0000000000E+000       9.9999999878E-001       1.3330432185E+000       3.8511308305E+000       6.6666666667E-002       1.0000000000E-003       1.0000000000E-003       0.0000000000E+000       1.0000000000E+000       0.0000000000E+000       2.7777777791E-003       4.3413704722E-002       8.6953103861E-004       1.0000000035E+000       2.5298665685E-001       1.5002912676E-005       1.1393196460E-006
       0.0000000000E+000       1.7126986487E-001       0.0000000000E+000       1.7775597058E+001       0.0000000000E+000       9.9999999878E-001       1.3792052403E+000       4.0806290927E+000       6.6666666667E-002       1.0000000000E-003       1.0000000000E-003       0.0000000000E+000       1.0000000000E+000       0.0000000000E+000       2.7777777791E-003       4.3330139537E-002       8.6953103861E-004       1.0000000035E+000       2.5641336424E-001       1.5001782094E-005       1.1420080131E-006
       0.0000000000E+000       1.8099890407E-001       0.0000000000E+000       1.7701160269E+001       0.0000000000E+000       9.9999999878E-001       1.4272150064E+000       4.3265792435E+000       6.6666666667E-002       1.0000000000E-003       1.0000000000E-003       0.0000000000E+000       1.0000000000E+000       0.0000000000E+000       2.7777777791E-003       4.3209008525E-002       8.6953103861E-004       1.0000000035E+000       2.5974667953E-001       1.5000490985E-005       1.1448676563E-006
       0.0000000000E+000       1.9064432522E-001       0.0000000000E+000       1.7623062678E+001       0.0000000000E+000       9.9999999878E-001       1.4769387629E+000       4.5894162348E+000       6.6666666667E-002       1.0000000000E-003       1.0000000000E-003       0.0000000000E+000       1.0000000000E+000       0.0000000000E+000       2.7777777791E-003       4.3045840406E-002       8.6953103861E-004       1.0000000035E+000       2.6294043975E-001       1.4999021895E-005       1.1478906965E-006
       0.0000000000E+000       2.0019531677E-001       0.0000000000E+000       1.7541403460E+001       0.0000000000E+000       9.9999999878E-001       1.5282475579E+000       4.8696250773E+000       6.6666666667E-002       1.0000000000E-003       1.0000000000E-003       0.0000000000E+000       1.0000000000E+000       0.0000000000E+000       2.7777777791E-003       4.2836726597E-002       8.6953103861E-004       1.0000000035E+000       2.6595064967E-001       1.4997357143E-005       1.1510702175E-006
       0.0000000000E+000       2.0964151104E-001       0.0000000000E+000       1.7456278913E+001       0.0000000000E+000       9.9999999878E-001       1.5810180445E+000       5.1677461477E+000       6.6666666667E-002       1.0000000000E-003       1.0000000000E-003       0.0000000000E+000       1.0000000000E+000       0.0000000000E+000       2.7777777791E-003       4.2578366417E-002       8.6953103861E-004       1.0000000035E+000       2.6873592556E-001       1.4995476679E-005       1.1543989298E-006
       0.0000000000E+000       2.1897302515E-001       0.0000000000E+000       1.7367781316E+001       0.0000000000E+000       9.9999999878E-001       1.6351329486E+000       5.4843799685E+000       6.6666666667E-002       1.0000000000E-003       1.0000000000E-003       0.0000000000E+000       1.0000000000E+000       0.0000000000E+000       2.7777777791E-003       4.2268094468E-002       8.6953103861E-004       1.0000000035E+000       2.7125775335E-001       1.4993359641E-005       1.1578690985E-006
       0.0000000000E+000       2.2818049727E-001       0.0000000000E+000       1.7275997992E+001       0.0000000000E+000       9.9999999878E-001       1.6904812462E+000       5.8201915236E+000       6.6666666667E-002       1.0000000000E-003       1.0000000000E-003       0.0000000000E+000       1.0000000000E+000       0.0000000000E+000       2.7777777791E-003       4.1903892257E-002       8.6953103861E-004       1.0000000035E+000       2.7348065793E-001       1.4990985627E-005       1.1614726565E-006
       0.0000000000E+000       2.3725511815E-001       0.0000000000E+000       1.7181010534E+001       0.0000000000E+000       9.9999999878E-001       1.7469580923E+000       6.1759141842E+000       6.6666666667E-002       1.0000000000E-003       1.0000000000E-003       0.0000000000E+000       1.0000000000E+000       0.0000000000E+000       2.7777777791E-003       4.1484386248E-002       8.6953103861E-004       1.0000000035E+000       2.7537230916E-001       1.4988334660E-005       1.1652013048E-006
       0.0000000000E+000       2.4618865751E-001       0.0000000000E+000       1.7082894181E+001       0.0000000000E+000       9.9999999878E-001       1.8044645435E+000       6.5523533240E+000       6.6666666667E-002       1.0000000000E-003       1.0000000000E-003       0.0000000000E+000       1.0000000000E+000       0.0000000000E+000       2.7777777791E-003       4.1008834498E-002       8.6953103861E-004       1.0000000035E+000       2.7690358624E-001       1.4985387158E-005       1.1690466027E-006
       0.0000000000E+000       2.5497348552E-001       0.0000000000E+000       1.6981717310E+001       0.0000000000E+000       9.9999999878E-001       1.8629071105E+000       6.9503897001E+000       6.6666666667E-002       1.0000000000E-003       1.0000000000E-003       0.0000000000E+000       1.0000000000E+000       0.0000000000E+000       2.7777777791E-003       4.0477103852E-002       8.6953103861E-004       1.0000000035E+000       2.7804860537E-001       1.4982123991E-005       1.1730000991E-006
       0.0000000000E+000       2.6360258909E-001       0.0000000000E+000       1.6877541013E+001       0.0000000000E+000       9.9999999878E-001       1.9221971692E+000       7.3709826660E+000       6.6666666667E-002       1.0000000000E-003       1.0000000000E-003       0.0000000000E+000       1.0000000000E+000       0.0000000000E+000       2.7777777791E-003       3.9889639491E-002       8.6953103861E-004       1.0000000035E+000       2.7878472570E-001       1.4978527075E-005       1.1770534720E-006
       0.0000000000E+000       2.7206958327E-001       0.0000000000E+000       1.6770418748E+001       0.0000000000E+000       9.9999999878E-001       1.9822502585E+000       7.8151732806E+000       6.6666666667E-002       1.0000000000E-003       1.0000000000E-003       0.0000000000E+000       1.0000000000E+000       0.0000000000E+000       2.7777777791E-003       3.9247428408E-002       8.6953103861E-004       1.0000000035E+000       2.7909252544E-001       1.4974578617E-005       1.1811986569E-006
       0.0000000000E+000       2.8036871763E-001       0.0000000000E+000       1.6660396046E+001       0.0000000000E+000       9.9999999878E-001       2.0429852808E+000       8.2840873564E+000       6.6666666667E-002       1.0000000000E-003       1.0000000000E-003       0.0000000000E+000       1.0000000000E+000       0.0000000000E+000       2.7777777791E-003       3.8551958217E-002       8.6953103861E-004       1.0000000035E+000       2.7895577164E-001       1.4970261069E-005       1.1854279595E-006
       0.0000000000E+000       2.8849487814E-001       0.0000000000E+000       1.6547510236E+001       0.0000000000E+000       9.9999999878E-001       2.1043236227E+000       8.7789384873E+000       6.6666666667E-002       1.0000000000E-003       1.0000000000E-003       0.0000000000E+000       1.0000000000E+000       0.0000000000E+000       2.7777777791E-003       3.7805172483E-002       8.6953103861E-004       1.0000000035E+000       2.7836138010E-001       1.4965557069E-005       1.1897341601E-006
       0.0000000000E+000       2.9644358439E-001       0.0000000000E+000       1.6431790209E+001       0.0000000000E+000       9.9999999878E-001       2.1661882028E+000       9.3010310761E+000       6.6666666667E-002       1.0000000000E-003       1.0000000000E-003       0.0000000000E+000       1.0000000000E+000       0.0000000000E+000       2.7777777791E-003       3.7009423650E-002       8.6953103861E-004       1.0000000035E+000       2.7729936707E-001       1.4960449382E-005       1.1941106122E-006
       0.0000000000E+000       3.0421098279E-001       0.0000000000E+000       1.6313256172E+001       0.0000000000E+000       9.9999999878E-001       2.2285024540E+000       9.8517633719E+000       6.6666666667E-002       1.0000000000E-003       1.0000000000E-003       0.0000000000E+000       1.0000000000E+000       0.0000000000E+000       2.7777777791E-003       3.6167424490E-002       8.6953103861E-004       1.0000000035E+000       2.7576280571E-001       1.4954921911E-005       1.1985513214E-006
       0.0000000000E+000       3.1179383578E-001       0.0000000000E+000       1.6191919405E+001       0.0000000000E+000       9.9999999878E-001       2.2911892407E+000       1.0432630512E+001       6.6666666667E-002       1.0000000000E-003       1.0000000000E-003       0.0000000000E+000       1.0000000000E+000       0.0000000000E+000       2.7777777791E-003       3.5282198901E-002       8.6953103861E-004       1.0000000035E+000       2.7374784975E-001       1.4948958916E-005       1.2030502245E-006
       0.0000000000E+000       3.1918950757E-001       0.0000000000E+000       1.6067782004E+001       0.0000000000E+000       9.9999999878E-001       2.3541697101E+000       1.1045227546E+001       6.6666666667E-002       1.0000000000E-003       1.0000000000E-003       0.0000000000E+000       1.0000000000E+000       0.0000000000E+000       2.7777777791E-003       3.4357032795E-002       8.6953103861E-004       1.0000000035E+000       2.7125364575E-001       1.4942544456E-005       1.2076013568E-006
       0.0000000000E+000       3.2639594666E-001       0.0000000000E+000       1.5940836599E+001       0.0000000000E+000       9.9999999878E-001       2.4173620723E+000       1.1691252399E+001       6.6666666667E-002       1.0000000000E-003       1.0000000000E-003       0.0000000000E+000       1.0000000000E+000       0.0000000000E+000       2.7777777791E-003       3.3395425712E-002       8.6953103861E-004       1.0000000035E+000       2.6828215876E-001       1.4935662348E-005       1.2121997684E-006
       0.0000000000E+000       3.3341166559E-001       0.0000000000E+000       1.5811066032E+001       0.0000000000E+000       9.9999999878E-001       2.4806803021E+000       1.2372508709E+001       6.6666666667E-002       1.0000000000E-003       1.0000000000E-003       0.0000000000E+000       1.0000000000E+000       0.0000000000E+000       2.7777777791E-003       3.2401043778E-002       8.6953103861E-004       1.0000000035E+000       2.6483808853E-001       1.4928296091E-005       1.2168416061E-006
       0.0000000000E+000       3.4023571818E-001       0.0000000000E+000       1.5678443000E+001       0.0000000000E+000       9.9999999878E-001       2.5440327522E+000       1.3090908447E+001       6.6666666667E-002       1.0000000000E-003       1.0000000000E-003       0.0000000000E+000       1.0000000000E+000       0.0000000000E+000       2.7777777791E-003       3.1377674486E-002       8.6953103861E-004       1.0000000035E+000       2.6092875174E-001       1.4920428766E-005       1.2215244436E-006
       0.0000000000E+000       3.4686767480E-001       0.0000000000E+000       1.5542929646E+001       0.0000000000E+000       9.9999999878E-001       2.6073206644E+000       1.3848474175E+001       6.6666666667E-002       1.0000000000E-003       1.0000000000E-003       0.0000000000E+000       1.0000000000E+000       0.0000000000E+000       2.7777777791E-003       3.0329183799E-002       8.6953103861E-004       1.0000000035E+000       2.5656381522E-001       1.4912042789E-005       1.2262489845E-006
       0.0000000000E+000       3.5330759591E-001       0.0000000000E+000       1.5404477081E+001       0.0000000000E+000       9.9999999878E-001       2.6704365646E+000       1.4647340773E+001       6.6666666667E-002       1.0000000000E-003       1.0000000000E-003       0.0000000000E+000       1.0000000000E+000       0.0000000000E+000       2.7777777791E-003       2.9259475952E-002       8.6953103861E-004       1.0000000035E+000       2.5175542186E-001       1.4903119269E-005       1.2310170499E-006
       0.0000000000E+000       3.5955600420E-001       0.0000000000E+000       1.5263024847E+001       0.0000000000E+000       9.9999999878E-001       2.7332625217E+000       1.5489756365E+001       6.6666666667E-002       1.0000000000E-003       1.0000000000E-003       0.0000000000E+000       1.0000000000E+000       0.0000000000E+000       2.7777777791E-003       2.8172456293E-002       8.6953103861E-004       1.0000000035E+000       2.4651807840E-001       1.4893638460E-005       1.2358317014E-006
       0.0000000000E+000       3.6561385588E-001       0.0000000000E+000       1.5118500286E+001       0.0000000000E+000       9.9999999878E-001       2.7956682505E+000       1.6378082119E+001       6.6666666667E-002       1.0000000000E-003       1.0000000000E-003       0.0000000000E+000       1.0000000000E+000       0.0000000000E+000       2.7777777791E-003       2.7071997463E-002       8.6953103861E-004       1.0000000035E+000       2.4086852921E-001       1.4883579543E-005       1.2406973717E-006
       0.0000000000E+000       3.7148251118E-001       0.0000000000E+000       1.4970817830E+001       0.0000000000E+000       9.9999999878E-001       2.8575090339E+000       1.7314790432E+001       6.6666666667E-002       1.0000000000E-003       1.0000000000E-003       0.0000000000E+000       1.0000000000E+000       0.0000000000E+000       2.7777777791E-003       2.5961909119E-002       8.6953103861E-004       1.0000000035E+000       2.3482562204E-001       1.4872920400E-005       1.2456200095E-006
       0.0000000000E+000       3.7716370456E-001       0.0000000000E+000       1.4819878180E+001       0.0000000000E+000       9.9999999878E-001       2.9186234378E+000       1.8302460913E+001       6.6666666667E-002       1.0000000000E-003       1.0000000000E-003       0.0000000000E+000       1.0000000000E+000       0.0000000000E+000       2.7777777791E-003       2.4845911382E-002       8.6953103861E-004       1.0000000035E+000       2.2841016641E-001       1.4861637342E-005       1.2506072438E-006
       0.0000000000E+000       3.8265951477E-001       0.0000000000E+000       1.4665567371E+001       0.0000000000E+000       9.9999999878E-001       2.9788307876E+000       1.9343773289E+001       6.6666666667E-002       1.0000000000E-003       1.0000000000E-003       0.0000000000E+000       1.0000000000E+000       0.0000000000E+000       2.7777777791E-003       2.3727612103E-002       8.6953103861E-004       1.0000000035E+000       2.2164478581E-001       1.4849704803E-005       1.2556685728E-006
       0.0000000000E+000       3.8797233517E-001       0.0000000000E+000       1.4507755720E+001       0.0000000000E+000       9.9999999878E-001       3.0379283743E+000       2.0441496156E+001       6.6666666667E-002       1.0000000000E-003       1.0000000000E-003       0.0000000000E+000       1.0000000000E+000       0.0000000000E+000       2.7777777791E-003       2.2610487990E-002       8.6953103861E-004       1.0000000035E+000       2.1455372942E-001       1.4837094989E-005       1.2608160057E-006
       0.0000000000E+000       3.9310484436E-001       0.0000000000E+000       1.4346296621E+001       0.0000000000E+000       9.9999999878E-001       3.0956883526E+000       2.1598470079E+001       6.6666666667E-002       1.0000000000E-003       1.0000000000E-003       0.0000000000E+000       1.0000000000E+000       0.0000000000E+000       2.7777777791E-003       2.1497869597E-002       8.6953103861E-004       1.0000000035E+000       2.0716267161E-001       1.4823777466E-005       1.2660649570E-006
       0.0000000000E+000       3.9805997742E-001       0.0000000000E+000       1.4181025211E+001       0.0000000000E+000       9.9999999878E-001       3.1518542958E+000       2.2817583132E+001       6.6666666667E-002       1.0000000000E-003       1.0000000000E-003       0.0000000000E+000       1.0000000000E+000       0.0000000000E+000       2.7777777791E-003       2.0392930058E-002       8.6953103861E-004       1.0000000035E+000       1.9949866116E-001       1.4809718678E-005       1.2714334394E-006
       0.0000000000E+000       4.0284089799E-001       0.0000000000E+000       1.4011756857E+001       0.0000000000E+000       9.9999999878E-001       3.2061373680E+000       2.4101736340E+001       6.6666666667E-002       1.0000000000E-003       1.0000000000E-003       0.0000000000E+000       1.0000000000E+000       0.0000000000E+000       2.7777777791E-003       1.9298677462E-002       8.6953103861E-004       1.0000000035E+000       1.9158996513E-001       1.4794881388E-005       1.2769424490E-006
       0.0000000000E+000       4.0745097118E-001       0.0000000000E+000       1.3838285503E+001       0.0000000000E+000       9.9999999878E-001       3.2582120789E+000       2.5453795799E+001       6.6666666667E-002       1.0000000000E-003       1.0000000000E-003       0.0000000000E+000       1.0000000000E+000       0.0000000000E+000       2.7777777791E-003       1.8217950629E-002       8.6953103861E-004       1.0000000035E+000       1.8346591633E-001       1.4779224004E-005       1.2826164281E-006
       0.0000000000E+000       4.1189373758E-001       0.0000000000E+000       1.3660381827E+001       0.0000000000E+000       9.9999999878E-001       3.3077115915E+000       2.6876527283E+001       6.6666666667E-002       1.0000000000E-003       1.0000000000E-003       0.0000000000E+000       1.0000000000E+000       0.0000000000E+000       2.7777777791E-003       1.7153418039E-002       8.6953103861E-004       1.0000000035E+000       1.7515676719E-001       1.4762699776E-005       1.2884838275E-006
       0.0000000000E+000       4.1617288839E-001       0.0000000000E+000       1.3477791253E+001       0.0000000000E+000       9.9999999878E-001       3.3542225676E+000       2.8372508118E+001       6.6666666667E-002       1.0000000000E-003       1.0000000000E-003       0.0000000000E+000       1.0000000000E+000       0.0000000000E+000       2.7777777791E-003       1.6107579582E-002       8.6953103861E-004       1.0000000035E+000       1.6669359056E-001       1.4745255835E-005       1.2945772107E-006
       0.0000000000E+000       4.2029224178E-001       0.0000000000E+000       1.3290231802E+001       0.0000000000E+000       9.9999999878E-001       3.3972795539E+000       2.9944009707E+001       6.6666666667E-002       1.0000000000E-003       1.0000000000E-003       0.0000000000E+000       1.0000000000E+000       0.0000000000E+000       2.7777777791E-003       1.5082770759E-002       8.6953103861E-004       1.0000000035E+000       1.5810833061E-001       1.4726832034E-005       1.3009310551E-006
       0.0000000000E+000       4.2425572057E-001       0.0000000000E+000       1.3097391831E+001       0.0000000000E+000       9.9999999878E-001       3.4363589502E+000       3.1592842660E+001       6.6666666667E-002       1.0000000000E-003       1.0000000000E-003       0.0000000000E+000       1.0000000000E+000       0.0000000000E+000       2.7777777791E-003       1.4081168916E-002       8.6953103861E-004       1.0000000035E+000       1.4943341815E-001       1.4707359543E-005       1.3075865009E-006
       0.0000000000E+000       4.2806733114E-001       0.0000000000E+000       1.2898927685E+001       0.0000000000E+000       9.9999999878E-001       3.4708726531E+000       3.3320154699E+001       6.6666666667E-002       1.0000000000E-003       1.0000000000E-003       0.0000000000E+000       1.0000000000E+000       0.0000000000E+000       2.7777777791E-003       1.3104801066E-002       8.6953103861E-004       1.0000000035E+000       1.4070169067E-001       1.4686759089E-005       1.3145925593E-006
       0.0000000000E+000       4.3173114379E-001       0.0000000000E+000       1.2694461363E+001       0.0000000000E+000       9.9999999878E-001       3.5001615519E+000       3.5126169832E+001       6.6666666667E-002       1.0000000000E-003       1.0000000000E-003       0.0000000000E+000       1.0000000000E+000       0.0000000000E+000       2.7777777791E-003       1.2155552845E-002       8.6953103861E-004       1.0000000035E+000       1.3194633591E-001       1.4664938795E-005       1.3220076538E-006
       0.0000000000E+000       4.3525127437E-001       0.0000000000E+000       1.2483578294E+001       0.0000000000E+000       9.9999999878E-001       3.5234891690E+000       3.7009855555E+001       6.6666666667E-002       1.0000000000E-003       1.0000000000E-003       0.0000000000E+000       1.0000000000E+000       0.0000000000E+000       2.7777777791E-003       1.1235178110E-002       8.6953103861E-004       1.0000000035E+000       1.2320086327E-001       1.4641791461E-005       1.3299015967E-006
       0.0000000000E+000       4.3863186730E-001       0.0000000000E+000       1.2265825406E+001       0.0000000000E+000       9.9999999878E-001       3.5400359115E+000       3.8968503710E+001       6.6666666667E-002       1.0000000000E-003       1.0000000000E-003       0.0000000000E+000       1.0000000000E+000       0.0000000000E+000       2.7777777791E-003       1.0345308749E-002       8.6953103861E-004       1.0000000035E+000       1.1449910675E-001       1.4617191150E-005       1.3383581373E-006