 VARIABLES ="X","Y","U","W","P","C","T","k","eps", "v2","omega","nuSA","yplus","RHO","Pe","mu","mut"
 ZONE I=            98  J=            40  F=POINT 
       0.0000000000E+000      -9.2667936736E-003       9.9713264543E-005       1.9874060871E+001      -2.2165095974E+006       0.0000000000E+000       1.0000000000E+000       5.9616641401E-001       5.8451165614E-001       6.6666666667E-002       1.0000000000E-003       1.0000000000E-003       0.0000000000E+000       1.0000000000E+000       0.0000000000E+000       2.7777777778E-003       6.7065027400E-002
       0.0000000000E+000       9.2667936736E-003       9.9713264543E-005       1.9874060871E+001      -2.2165095974E+006       0.0000000000E+000       1.0000000000E+000       5.9616641401E-001       5.8451165614E-001       6.6666666667E-002       1.0000000000E-003       1.0000000000E-003       0.0000000000E+000       1.0000000000E+000       0.0000000000E+000       2.7777777778E-003       6.7065027400E-002
       0.0000000000E+000       2.7920250859E-002       9.9792081997E-005       1.9869114883E+001      -2.2165095974E+006       0.0000000000E+000       1.0000000000E+000       6.0016111538E-001       5.9107233363E-001       6.6666666667E-002       1.0000000000E-003       1.0000000000E-003       0.0000000000E+000       1.0000000000E+000       0.0000000000E+000       2.7777777778E-003       6.7156161965E-002
       0.0000000000E+000       4.6803837788E-002       9.9943657629E-005       1.9859057397E+001      -2.2165095974E+006       0.0000000000E+000       1.0000000000E+000       6.0824123604E-001       6.0441265672E-001       6.6666666667E-002       1.0000000000E-003       1.0000000000E-003       0.0000000000E+000       1.0000000000E+000       0.0000000000E+000       2.7777777778E-003       6.7378687599E-002
       0.0000000000E+000       6.5897829027E-002       1.0009015013E-004       1.9843773034E+001      -2.2165095973E+006       0.0000000000E+000       1.0000000000E+000       6.2045811968E-001       6.2472921045E-001       6.6666666667E-002       1.0000000000E-003       1.0000000000E-003       0.0000000000E+000       1.0000000000E+000       0.0000000000E+000       2.7777777778E-003       6.7736529201E-002
       0.0000000000E+000       8.5181526490E-002       1.0024421826E-004       1.9823198687E+001      -2.2165095973E+006       0.0000000000E+000       1.0000000000E+000       6.3679954007E-001       6.5217269378E-001       6.6666666667E-002       1.0000000000E-003       1.0000000000E-003       0.0000000000E+000       1.0000000000E+000       0.0000000000E+000       2.7777777778E-003       6.8231735511E-002
       0.0000000000E+000       1.0463334093E-001       1.0041585342E-004       1.9797324936E+001      -2.2165095973E+006       0.0000000000E+000       1.0000000000E+000       6.5719002077E-001       6.8684536612E-001       6.6666666667E-002       1.0000000000E-003       1.0000000000E-003       0.0000000000E+000       1.0000000000E+000       0.0000000000E+000       2.7777777778E-003       6.8863232978E-002
       0.0000000000E+000       1.2423088209E-001       1.0061310112E-004       1.9766194832E+001      -2.2165095973E+006       0.0000000000E+000       1.0000000000E+000       6.8149478716E-001       7.2880138583E-001       6.6666666667E-002       1.0000000000E-003       1.0000000000E-003       0.0000000000E+000       1.0000000000E+000       0.0000000000E+000       2.7777777778E-003       6.9625788676E-002
       0.0000000000E+000       1.4395105684E-001       1.0084271048E-004       1.9729899866E+001      -2.2165095973E+006       0.0000000000E+000       1.0000000000E+000       7.0952735289E-001       7.7805077267E-001       6.6666666667E-002       1.0000000000E-003       1.0000000000E-003       0.0000000000E+000       1.0000000000E+000       0.0000000000E+000       2.7777777778E-003       7.0509508154E-002
       0.0000000000E+000       1.6377017442E-001       1.0111071725E-004       1.9688573442E+001      -2.2165095972E+006       0.0000000000E+000       1.0000000000E+000       7.4105911028E-001       8.3456559917E-001       6.6666666667E-002       1.0000000000E-003       1.0000000000E-003       0.0000000000E+000       1.0000000000E+000       0.0000000000E+000       2.7777777778E-003       7.1499930938E-002
       0.0000000000E+000       1.8366405776E-001       1.0142276414E-004       1.9642382642E+001      -2.2165095972E+006       0.0000000000E+000       1.0000000000E+000       7.7583127022E-001       8.9829054280E-001       6.6666666667E-002       1.0000000000E-003       1.0000000000E-003       0.0000000000E+000       1.0000000000E+000       0.0000000000E+000       2.7777777778E-003       7.2578682247E-002
       0.0000000000E+000       2.0360815989E-001       1.0178416576E-004       1.9591519244E+001      -2.2165095972E+006       0.0000000000E+000       1.0000000000E+000       8.1356683904E-001       9.6915439878E-001       6.6666666667E-002       1.0000000000E-003       1.0000000000E-003       0.0000000000E+000       1.0000000000E+000       0.0000000000E+000       2.7777777778E-003       7.3724494058E-002
       0.0000000000E+000       2.2357768425E-001       1.0220023590E-004       1.9536190957E+001      -2.2165095972E+006       0.0000000000E+000       1.0000000000E+000       8.5398168870E-001       1.0470819317E+000       6.6666666667E-002       1.0000000000E-003       1.0000000000E-003       0.0000000000E+000       1.0000000000E+000       0.0000000000E+000       2.7777777778E-003       7.4914349669E-002
       0.0000000000E+000       2.4354770750E-001       1.0267611473E-004       1.9476613595E+001      -2.2165095972E+006       0.0000000000E+000       1.0000000000E+000       8.9679399041E-001       1.1320049812E+000       6.6666666667E-002       1.0000000000E-003       1.0000000000E-003       0.0000000000E+000       1.0000000000E+000       0.0000000000E+000       2.7777777778E-003       7.6124579236E-002
       0.0000000000E+000       2.6349330387E-001       1.0321698227E-004       1.9413004590E+001      -2.2165095972E+006       0.0000000000E+000       1.0000000000E+000       9.4173162512E-001       1.2238720884E+000       6.6666666667E-002       1.0000000000E-003       1.0000000000E-003       0.0000000000E+000       1.0000000000E+000       0.0000000000E+000       2.7777777778E-003       7.7331791430E-002
       0.0000000000E+000       2.8338966932E-001       1.0382804435E-004       1.9345577987E+001      -2.2165095971E+006       0.0000000000E+000       1.0000000000E+000       9.8853736551E-001       1.3226563135E+000       6.6666666667E-002       1.0000000000E-003       1.0000000000E-003       0.0000000000E+000       1.0000000000E+000       0.0000000000E+000       2.7777777778E-003       7.8513567864E-002
       0.0000000000E+000       3.0321224457E-001       1.0451439100E-004       1.9274540833E+001      -2.2165095971E+006       0.0000000000E+000       1.0000000000E+000       1.0369724482E+000       1.4283608397E+000       6.6666666667E-002       1.0000000000E-003       1.0000000000E-003       0.0000000000E+000       1.0000000000E+000       0.0000000000E+000       2.7777777778E-003       7.9649003907E-002
       0.0000000000E+000       3.2293683551E-001       1.0528114865E-004       1.9200090788E+001      -2.2165095971E+006       0.0000000000E+000       1.0000000000E+000       1.0868186229E+000       1.5410232975E+000       6.6666666667E-002       1.0000000000E-003       1.0000000000E-003       0.0000000000E+000       1.0000000000E+000       0.0000000000E+000       2.7777777778E-003       8.0719039336E-002
       0.0000000000E+000       3.4253972973E-001       1.0613341928E-004       1.9122414684E+001      -2.2165095971E+006       0.0000000000E+000       1.0000000000E+000       1.1378790207E+000       1.6607191387E+000       6.6666666667E-002       1.0000000000E-003       1.0000000000E-003       0.0000000000E+000       1.0000000000E+000       0.0000000000E+000       2.7777777778E-003       8.1706622678E-002
       0.0000000000E+000       3.6199780814E-001       1.0707590389E-004       1.9041687789E+001      -2.2165095971E+006       0.0000000000E+000       1.0000000000E+000       1.1899777202E+000       1.7875641082E+000       6.6666666667E-002       1.0000000000E-003       1.0000000000E-003       0.0000000000E+000       1.0000000000E+000       0.0000000000E+000       2.7777777778E-003       8.2596709846E-002
       0.0000000000E+000       3.8128865043E-001       1.0811276874E-004       1.8958073578E+001      -2.2165095970E+006       0.0000000000E+000       1.0000000000E+000       1.2429590711E+000       1.9217144739E+000       6.6666666667E-002       1.0000000000E-003       1.0000000000E-003       0.0000000000E+000       1.0000000000E+000       0.0000000000E+000       2.7777777778E-003       8.3376306203E-002
       0.0000000000E+000       4.0039063353E-001       1.0924780280E-004       1.8871723826E+001      -2.2165095970E+006       0.0000000000E+000       1.0000000000E+000       1.2966866253E+000       2.0633678205E+000       6.6666666667E-002       1.0000000000E-003       1.0000000000E-003       0.0000000000E+000       1.0000000000E+000       0.0000000000E+000       2.7777777778E-003       8.4034402467E-002
       0.0000000000E+000       4.1928302209E-001       1.1048404816E-004       1.8782778908E+001      -2.2165095970E+006       0.0000000000E+000       1.0000000000E+000       1.3510418617E+000       2.2127635662E+000       6.6666666667E-002       1.0000000000E-003       1.0000000000E-003       0.0000000000E+000       1.0000000000E+000       0.0000000000E+000       2.7777777778E-003       8.4561883925E-002
       0.0000000000E+000       4.3794605030E-001       1.1182375733E-004       1.8691368198E+001      -2.2165095970E+006       0.0000000000E+000       1.0000000000E+000       1.4059228205E+000       2.3701833868E+000       6.6666666667E-002       1.0000000000E-003       1.0000000000E-003       0.0000000000E+000       1.0000000000E+000       0.0000000000E+000       2.7777777778E-003       8.4951425844E-002
       0.0000000000E+000       4.5636099455E-001       1.1326845017E-004       1.8597610508E+001      -2.2165095970E+006       0.0000000000E+000       1.0000000000E+000       1.4612427249E+000       2.5359516774E+000       6.6666666667E-002       1.0000000000E-003       1.0000000000E-003       0.0000000000E+000       1.0000000000E+000       0.0000000000E+000       2.7777777778E-003       8.5197383615E-002
       0.0000000000E+000       4.7451023629E-001       1.1481870919E-004       1.8501614525E+001      -2.2165095969E+006       0.0000000000E+000       1.0000000000E+000       1.5169286361E+000       2.7104361443E+000       6.6666666667E-002       1.0000000000E-003       1.0000000000E-003       0.0000000000E+000       1.0000000000E+000       0.0000000000E+000       2.7777777778E-003       8.5295682927E-002
       0.0000000000E+000       4.9237731502E-001       1.1647429416E-004       1.8403479225E+001      -2.2165095969E+006       0.0000000000E+000       1.0000000000E+000       1.5729201681E+000       2.8940485922E+000       6.6666666667E-002       1.0000000000E-003       1.0000000000E-003       0.0000000000E+000       1.0000000000E+000       0.0000000000E+000       2.7777777778E-003       8.5243712904E-002
       0.0000000000E+000       5.0994697103E-001       1.1823388268E-004       1.8303294240E+001      -2.2165095969E+006       0.0000000000E+000       1.0000000000E+000       1.6291682746E+000       3.0872459463E+000       6.6666666667E-002       1.0000000000E-003       1.0000000000E-003       0.0000000000E+000       1.0000000000E+000       0.0000000000E+000       2.7777777778E-003       8.5040223534E-002
       0.0000000000E+000       5.2720517819E-001       1.2009510089E-004       1.8201140184E+001      -2.2165095969E+006       0.0000000000E+000       1.0000000000E+000       1.6856341112E+000       3.2905315414E+000       6.6666666667E-002       1.0000000000E-003       1.0000000000E-003       0.0000000000E+000       1.0000000000E+000       0.0000000000E+000       2.7777777778E-003       8.4685227700E-002
       0.0000000000E+000       5.4413916653E-001       1.2205464343E-004       1.8097088928E+001      -2.2165095969E+006       0.0000000000E+000       1.0000000000E+000       1.7422879691E+000       3.5044566943E+000       6.6666666667E-002       1.0000000000E-003       1.0000000000E-003       0.0000000000E+000       1.0000000000E+000       0.0000000000E+000       2.7777777778E-003       8.4179907498E-002
       0.0000000000E+000       5.6073743527E-001       1.2410801719E-004       1.7991203834E+001      -2.2165095969E+006       0.0000000000E+000       1.0000000000E+000       1.7991082757E+000       3.7296225767E+000       6.6666666667E-002       1.0000000000E-003       1.0000000000E-003       0.0000000000E+000       1.0000000000E+000       0.0000000000E+000       2.7777777778E-003       8.3526524209E-002
       0.0000000000E+000       5.7698975628E-001       1.2624974141E-004       1.7883539950E+001      -2.2165095969E+006       0.0000000000E+000       1.0000000000E+000       1.8560806553E+000       3.9666823987E+000       6.6666666667E-002       1.0000000000E-003       1.0000000000E-003       0.0000000000E+000       1.0000000000E+000       0.0000000000E+000       2.7777777778E-003       8.2728331170E-002
       0.0000000000E+000       5.9288716879E-001       1.2847333091E-004       1.7774144162E+001      -2.2165095969E+006       0.0000000000E+000       1.0000000000E+000       1.9131970408E+000       4.2163439164E+000       6.6666666667E-002       1.0000000000E-003       1.0000000000E-003       0.0000000000E+000       1.0000000000E+000       0.0000000000E+000       2.7777777778E-003       8.1789488764E-002
       0.0000000000E+000       6.0842196558E-001       1.3077130815E-004       1.7663055319E+001      -2.2165095968E+006       0.0000000000E+000       1.0000000000E+000       1.9704548299E+000       4.4793722733E+000       6.6666666667E-002       1.0000000000E-003       1.0000000000E-003       0.0000000000E+000       1.0000000000E+000       0.0000000000E+000       2.7777777778E-003       8.0714980866E-002
       0.0000000000E+000       6.2358767156E-001       1.3313542640E-004       1.7550304329E+001      -2.2165095968E+006       0.0000000000E+000       1.0000000000E+000       2.0278560783E+000       4.7565931918E+000       6.6666666667E-002       1.0000000000E-003       1.0000000000E-003       0.0000000000E+000       1.0000000000E+000       0.0000000000E+000       2.7777777778E-003       7.9510532210E-002
       0.0000000000E+000       6.3837901513E-001       1.3555667110E-004       1.7435914219E+001      -2.2165095968E+006       0.0000000000E+000       1.0000000000E+000       2.0854067227E+000       5.0488965300E+000       6.6666666667E-002       1.0000000000E-003       1.0000000000E-003       0.0000000000E+000       1.0000000000E+000       0.0000000000E+000       2.7777777778E-003       7.8182526306E-002
       0.0000000000E+000       6.5279189332E-001       1.3802523488E-004       1.7319900185E+001      -2.2165095968E+006       0.0000000000E+000       1.0000000000E+000       2.1431158266E+000       5.3572402235E+000       6.6666666667E-002       1.0000000000E-003       1.0000000000E-003       0.0000000000E+000       1.0000000000E+000       0.0000000000E+000       2.7777777778E-003       7.6737923708E-002
       0.0000000000E+000       6.6682333117E-001       1.4053080290E-004       1.7202269599E+001      -2.2165095968E+006       0.0000000000E+000       1.0000000000E+000       2.2009948435E+000       5.6826546353E+000       6.6666666667E-002       1.0000000000E-003       1.0000000000E-003       0.0000000000E+000       1.0000000000E+000       0.0000000000E+000       2.7777777778E-003       7.5184180628E-002
       0.0000000000E+000       6.8047143635E-001       1.4306260561E-004       1.7083022004E+001      -2.2165095968E+006       0.0000000000E+000       1.0000000000E+000       2.2590568888E+000       6.0262473376E+000       6.6666666667E-002       1.0000000000E-003       1.0000000000E-003       0.0000000000E+000       1.0000000000E+000       0.0000000000E+000       2.7777777778E-003       7.3529168035E-002
       0.0000000000E+000       6.9373534961E-001       1.4560933740E-004       1.6962149074E+001      -2.2165095968E+006       0.0000000000E+000       1.0000000000E+000       2.3173160169E+000       6.3892083587E+000       6.6666666667E-002       1.0000000000E-003       1.0000000000E-003       0.0000000000E+000       1.0000000000E+000       0.0000000000E+000       2.7777777778E-003       7.1781091527E-002
       0.0000000000E+000       7.0661519181E-001       1.4815958125E-004       1.6839634547E+001      -2.2165095968E+006       0.0000000000E+000       1.0000000000E+000       2.3757864930E+000       6.7728159244E+000       6.6666666667E-002       1.0000000000E-003       1.0000000000E-003       0.0000000000E+000       1.0000000000E+000       0.0000000000E+000       2.7777777778E-003       6.9948412391E-002
       0.0000000000E+000       7.1911200840E-001       1.5070175505E-004       1.6715454128E+001      -2.2165095968E+006       0.0000000000E+000       1.0000000000E+000       2.4344820545E+000       7.1784427348E+000       6.6666666667E-002       1.0000000000E-003       1.0000000000E-003       0.0000000000E+000       1.0000000000E+000       0.0000000000E+000       2.7777777778E-003       6.8039770348E-002
       0.0000000000E+000       7.3122771176E-001       1.5322425850E-004       1.6589575342E+001      -2.2165095968E+006       0.0000000000E+000       1.0000000000E+000       2.4934151518E+000       7.6075628143E+000       6.6666666667E-002       1.0000000000E-003       1.0000000000E-003       0.0000000000E+000       1.0000000000E+000       0.0000000000E+000       2.7777777778E-003       6.6063908556E-002
       0.0000000000E+000       7.4296502236E-001       1.5571536961E-004       1.6461957363E+001      -2.2165095968E+006       0.0000000000E+000       1.0000000000E+000       2.5525961595E+000       8.0617589886E+000       6.6666666667E-002       1.0000000000E-003       1.0000000000E-003       0.0000000000E+000       1.0000000000E+000       0.0000000000E+000       2.7777777778E-003       6.4029601427E-002
       0.0000000000E+000       7.5432740911E-001       1.5816357835E-004       1.6332550776E+001      -2.2165095968E+006       0.0000000000E+000       1.0000000000E+000       2.6120325474E+000       8.5427310461E+000       6.6666666667E-002       1.0000000000E-003       1.0000000000E-003       0.0000000000E+000       1.0000000000E+000       0.0000000000E+000       2.7777777778E-003       6.1945585826E-002
       0.0000000000E+000       7.6531902954E-001       1.6055780548E-004       1.6201297294E+001      -2.2165095968E+006       0.0000000000E+000       1.0000000000E+000       2.6717279986E+000       9.0523046256E+000       6.6666666667E-002       1.0000000000E-003       1.0000000000E-003       0.0000000000E+000       1.0000000000E+000       0.0000000000E+000       2.7777777778E-003       5.9820496382E-002
       0.0000000000E+000       7.7594467035E-001       1.6288686771E-004       1.6068129405E+001      -2.2165095968E+006       0.0000000000E+000       1.0000000000E+000       2.7316814590E+000       9.5924408879E+000       6.6666666667E-002       1.0000000000E-003       1.0000000000E-003       0.0000000000E+000       1.0000000000E+000       0.0000000000E+000       2.7777777778E-003       5.7662805411E-002
       0.0000000000E+000       7.8620968872E-001       1.6514003033E-004       1.5932969948E+001      -2.2165095968E+006       0.0000000000E+000       1.0000000000E+000       2.7918861033E+000       1.0165247034E+001       6.6666666667E-002       1.0000000000E-003       1.0000000000E-003       0.0000000000E+000       1.0000000000E+000       0.0000000000E+000       2.7777777778E-003       5.5480767941E-002
       0.0000000000E+000       7.9611995484E-001       1.6730703777E-004       1.5795731597E+001      -2.2165095968E+006       0.0000000000E+000       1.0000000000E+000       2.8523281956E+000       1.0772987730E+001       6.6666666667E-002       1.0000000000E-003       1.0000000000E-003       0.0000000000E+000       1.0000000000E+000       0.0000000000E+000       2.7777777778E-003       5.3282372212E-002
       0.0000000000E+000       8.0568179598E-001       1.6937789551E-004       1.5656316252E+001      -2.2165095968E+006       0.0000000000E+000       1.0000000000E+000       2.9129858237E+000       1.1418097506E+001       6.6666666667E-002       1.0000000000E-003       1.0000000000E-003       0.0000000000E+000       1.0000000000E+000       0.0000000000E+000       2.7777777778E-003       5.1075295980E-002
       0.0000000000E+000       8.1490194236E-001       1.7134303092E-004       1.5514614319E+001      -2.2165095968E+006       0.0000000000E+000       1.0000000000E+000       2.9738274766E+000       1.2103194173E+001       6.6666666667E-002       1.0000000000E-003       1.0000000000E-003       0.0000000000E+000       1.0000000000E+000       0.0000000000E+000       2.7777777778E-003       4.8866868851E-002
       0.0000000000E+000       8.2378747516E-001       1.7319300433E-004       1.5370503848E+001      -2.2165095968E+006       0.0000000000E+000       1.0000000000E+000       3.0348104392E+000       1.2831093304E+001       6.6666666667E-002       1.0000000000E-003       1.0000000000E-003       0.0000000000E+000       1.0000000000E+000       0.0000000000E+000       2.7777777778E-003       4.6664040836E-002
       0.0000000000E+000       8.3234577677E-001       1.7491882437E-004       1.5223849533E+001      -2.2165095968E+006       0.0000000000E+000       1.0000000000E+000       3.0958789596E+000       1.3604823803E+001       6.6666666667E-002       1.0000000000E-003       1.0000000000E-003       0.0000000000E+000       1.0000000000E+000       0.0000000000E+000       2.7777777778E-003       4.4473357080E-002
       0.0000000000E+000       8.4058448357E-001       1.7651178633E-004       1.5074501531E+001      -2.2165095968E+006       0.0000000000E+000       1.0000000000E+000       3.1569621453E+000       1.4427644527E+001       6.6666666667E-002       1.0000000000E-003       1.0000000000E-003       0.0000000000E+000       1.0000000000E+000       0.0000000000E+000       2.7777777778E-003       4.2300938725E-002
       0.0000000000E+000       8.4851144115E-001       1.7796328596E-004       1.4922294074E+001      -2.2165095968E+006       0.0000000000E+000       1.0000000000E+000       3.2179715336E+000       1.5303061879E+001       6.6666666667E-002       1.0000000000E-003       1.0000000000E-003       0.0000000000E+000       1.0000000000E+000       0.0000000000E+000       2.7777777778E-003       4.0152469831E-002
       0.0000000000E+000       8.5613466229E-001       1.7926473976E-004       1.4767043857E+001      -2.2165095968E+006       0.0000000000E+000       1.0000000000E+000       3.2787982716E+000       1.6234848180E+001       6.6666666667E-002       1.0000000000E-003       1.0000000000E-003       0.0000000000E+000       1.0000000000E+000       0.0000000000E+000       2.7777777778E-003       3.8033190173E-002
       0.0000000000E+000       8.6346228758E-001       1.8040740841E-004       1.4608548144E+001      -2.2165095968E+006       0.0000000000E+000       1.0000000000E+000       3.3393098257E+000       1.7227060452E+001       6.6666666667E-002       1.0000000000E-003       1.0000000000E-003       0.0000000000E+000       1.0000000000E+000       0.0000000000E+000       2.7777777778E-003       3.5947893728E-002
       0.0000000000E+000       8.7050254873E-001       1.8138254379E-004       1.4446582557E+001      -2.2165095968E+006       0.0000000000E+000       1.0000000000E+000       3.3993461275E+000       1.8284059002E+001       6.6666666667E-002       1.0000000000E-003       1.0000000000E-003       0.0000000000E+000       1.0000000000E+000       0.0000000000E+000       2.7777777778E-003       3.3900932595E-002
       0.0000000000E+000       8.7726373460E-001       1.8218068902E-004       1.4280898496E+001      -2.2165095968E+006       0.0000000000E+000       1.0000000000E+000       3.4587150416E+000       1.9410524838E+001       6.6666666667E-002       1.0000000000E-003       1.0000000000E-003       0.0000000000E+000       1.0000000000E+000       0.0000000000E+000       2.7777777778E-003       3.1896226099E-002
       0.0000000000E+000       8.8375415988E-001       1.8279207350E-004       1.4111220129E+001      -2.2165095969E+006       0.0000000000E+000       1.0000000000E+000       3.5171870186E+000       2.0611474338E+001       6.6666666667E-002       1.0000000000E-003       1.0000000000E-003       0.0000000000E+000       1.0000000000E+000       0.0000000000E+000       2.7777777778E-003       2.9937274771E-002
       0.0000000000E+000       8.8998213639E-001       1.8320613252E-004       1.3937240868E+001      -2.2165095969E+006       0.0000000000E+000       1.0000000000E+000       3.5744887680E+000       2.1892268871E+001       6.6666666667E-002       1.0000000000E-003       1.0000000000E-003       0.0000000000E+000       1.0000000000E+000       0.0000000000E+000       2.7777777778E-003       2.8027178904E-002
       0.0000000000E+000       8.9595594686E-001       1.8341132404E-004       1.3758619274E+001      -2.2165095969E+006       0.0000000000E+000       1.0000000000E+000       3.6302957554E+000       2.3258615810E+001       6.6666666667E-002       1.0000000000E-003       1.0000000000E-003       0.0000000000E+000       1.0000000000E+000       0.0000000000E+000       2.7777777778E-003       2.6168661357E-002
       0.0000000000E+000       9.0168382125E-001       1.8339464609E-004       1.3574974262E+001      -2.2165095969E+006       0.0000000000E+000       1.0000000000E+000       3.6842232893E+000       2.4716555793E+001       6.6666666667E-002       1.0000000000E-003       1.0000000000E-003       0.0000000000E+000       1.0000000000E+000       0.0000000000E+000       2.7777777778E-003       2.4364094233E-002
       0.0000000000E+000       9.0717391533E-001       1.8314143558E-004       1.3385879532E+001      -2.2165095969E+006       0.0000000000E+000       1.0000000000E+000       3.7358159254E+000       2.6272428673E+001       6.6666666667E-002       1.0000000000E-003       1.0000000000E-003       0.0000000000E+000       1.0000000000E+000       0.0000000000E+000       2.7777777778E-003       2.2615529025E-002
       0.0000000000E+000       9.1243429153E-001       1.8263557395E-004       1.3190857085E+001      -2.2165095969E+006       0.0000000000E+000       1.0000000000E+000       3.7845348741E+000       2.7932807371E+001       6.6666666667E-002       1.0000000000E-003       1.0000000000E-003       0.0000000000E+000       1.0000000000E+000       0.0000000000E+000       2.7777777778E-003       2.0924729782E-002
       0.0000000000E+000       9.1747290199E-001       1.8185864619E-004       1.2989369699E+001      -2.2165095969E+006       0.0000000000E+000       1.0000000000E+000       3.8297430617E+000       2.9704384224E+001       6.6666666667E-002       1.0000000000E-003       1.0000000000E-003       0.0000000000E+000       1.0000000000E+000       0.0000000000E+000       2.7777777778E-003       1.9293208757E-002
       0.0000000000E+000       9.2229757354E-001       1.8078978816E-004       1.2780812238E+001      -2.2165095969E+006       0.0000000000E+000       1.0000000000E+000       3.8706874756E+000       3.1593788247E+001       6.6666666667E-002       1.0000000000E-003       1.0000000000E-003       0.0000000000E+000       1.0000000000E+000       0.0000000000E+000       2.7777777778E-003       1.7722263978E-002
       0.0000000000E+000       9.2691599462E-001       1.7940548190E-004       1.2564501666E+001      -2.2165095969E+006       0.0000000000E+000       1.0000000000E+000       3.9064784358E+000       3.3607303222E+001       6.6666666667E-002       1.0000000000E-003       1.0000000000E-003       0.0000000000E+000       1.0000000000E+000       0.0000000000E+000       2.7777777778E-003       1.6213018080E-002
       0.0000000000E+000       9.3133570398E-001       1.7767888737E-004       1.2339665655E+001      -2.2165095969E+006       0.0000000000E+000       1.0000000000E+000       3.9360655148E+000       3.5750445362E+001       6.6666666667E-002       1.0000000000E-003       1.0000000000E-003       0.0000000000E+000       1.0000000000E+000       0.0000000000E+000       2.7777777778E-003       1.4766457713E-002
       0.0000000000E+000       9.3556408104E-001       1.7558006482E-004       1.2105429776E+001      -2.2165095969E+006       0.0000000000E+000       1.0000000000E+000       3.9582100232E+000       3.8027344799E+001       6.6666666667E-002       1.0000000000E-003       1.0000000000E-003       0.0000000000E+000       1.0000000000E+000       0.0000000000E+000       2.7777777778E-003       1.3383472807E-002
       0.0000000000E+000       9.3960833779E-001       1.7307530277E-004       1.1860803341E+001      -2.2165095969E+006       0.0000000000E+000       1.0000000000E+000       3.9714543814E+000       4.0439857156E+001       6.6666666667E-002       1.0000000000E-003       1.0000000000E-003       0.0000000000E+000       1.0000000000E+000       0.0000000000E+000       2.7777777778E-003       1.2064894958E-002
       0.0000000000E+000       9.4347551212E-001       1.7012723776E-004       1.1604664233E+001      -2.2165095969E+006       0.0000000000E+000       1.0000000000E+000       3.9740894152E+000       4.2986310576E+001       6.6666666667E-002       1.0000000000E-003       1.0000000000E-003       0.0000000000E+000       1.0000000000E+000       0.0000000000E+000       2.7777777778E-003       1.0811534079E-002