 VARIABLES ="X","Y","U","W","P","C","T","k","eps", "v2","omega","nuSA","yplus","RHO","Pe","mu","mut"
 ZONE I=            98  J=            40  F=POINT 
       0.0000000000E+000      -1.0100607860E-003      -0.0000000000E+000      -6.1134731742E+000       0.0000000000E+000       0.0000000000E+000       1.0000000000E+000      -1.9674755083E+000       1.0445571500E+004       0.0000000000E+000       0.0000000000E+000       0.0000000000E+000       0.0000000000E+000       1.0000000000E+000       0.0000000000E+000       2.7777777778E-003       7.1570123983E-006
       0.0000000000E+000       1.0100607860E-003       0.0000000000E+000       6.1134731742E+000       0.0000000000E+000       0.0000000000E+000       1.0000000000E+000       1.9674755083E+000       1.0981943317E+004       6.6666666667E-002       1.0000000000E-003       1.0000000000E-003       0.0000000000E+000       1.0000000000E+000       0.0000000000E+000       2.7777777778E-003       7.1570123983E-006
       0.0000000000E+000       3.1294375279E-003       0.0000000000E+000       1.8221746585E+001       0.0000000000E+000       0.0000000000E+000       1.0000000000E+000       2.1576777420E+001       1.6688963325E+004       6.6666666667E-002       1.0000000000E-003       1.0000000000E-003       0.0000000000E+000       1.0000000000E+000       0.0000000000E+000       2.7777777778E-003       3.3553251291E-004
       0.0000000000E+000       5.4568238521E-003       0.0000000000E+000       2.8317317668E+001       0.0000000000E+000       0.0000000000E+000       1.0000000000E+000       5.0554934423E+001       2.0264322703E+004       6.6666666667E-002       1.0000000000E-003       1.0000000000E-003       0.0000000000E+000       1.0000000000E+000       0.0000000000E+000       2.7777777778E-003       1.8688790351E-003
       0.0000000000E+000       8.0120745591E-003       0.0000000000E+000       3.5319287548E+001       0.0000000000E+000       0.0000000000E+000       1.0000000000E+000       6.8410499578E+001       1.8438992601E+004       6.6666666667E-002       1.0000000000E-003       1.0000000000E-003       0.0000000000E+000       1.0000000000E+000       0.0000000000E+000       2.7777777778E-003       4.8404310557E-003
       0.0000000000E+000       1.0816823264E-002       0.0000000000E+000       4.0193697368E+001       0.0000000000E+000       0.0000000000E+000       1.0000000000E+000       7.5587552104E+001       1.5301481876E+004       6.6666666667E-002       1.0000000000E-003       1.0000000000E-003       0.0000000000E+000       1.0000000000E+000       0.0000000000E+000       2.7777777778E-003       8.9068862259E-003
       0.0000000000E+000       1.3894617523E-002       0.0000000000E+000       4.3830244611E+001       0.0000000000E+000       0.0000000000E+000       1.0000000000E+000       7.7636649592E+001       1.2558246567E+004       6.6666666667E-002       1.0000000000E-003       1.0000000000E-003       0.0000000000E+000       1.0000000000E+000       0.0000000000E+000       2.7777777778E-003       1.3870130378E-002
       0.0000000000E+000       1.7271059037E-002       0.0000000000E+000       4.6715854269E+001       0.0000000000E+000       0.0000000000E+000       1.0000000000E+000       7.7443445963E+001       1.0406736809E+004       6.6666666667E-002       1.0000000000E-003       1.0000000000E-003       0.0000000000E+000       1.0000000000E+000       0.0000000000E+000       2.7777777778E-003       1.9651386811E-002
       0.0000000000E+000       2.0973947879E-002       0.0000000000E+000       4.9113735334E+001       0.0000000000E+000       0.0000000000E+000       1.0000000000E+000       7.6278912071E+001       8.7384593568E+003       6.6666666667E-002       1.0000000000E-003       1.0000000000E-003       0.0000000000E+000       1.0000000000E+000       0.0000000000E+000       2.7777777778E-003       2.6226639773E-002
       0.0000000000E+000       2.5033429320E-002       0.0000000000E+000       5.1175597900E+001       0.0000000000E+000       0.0000000000E+000       1.0000000000E+000       7.4712769163E+001       7.4289409710E+003       6.6666666667E-002       1.0000000000E-003       1.0000000000E-003       0.0000000000E+000       1.0000000000E+000       0.0000000000E+000       2.7777777778E-003       3.3596175980E-002
       0.0000000000E+000       2.9482141392E-002       0.0000000000E+000       5.2995022341E+001       0.0000000000E+000       0.0000000000E+000       1.0000000000E+000       7.3009937981E+001       6.3832376747E+003       6.6666666667E-002       1.0000000000E-003       1.0000000000E-003       0.0000000000E+000       1.0000000000E+000       0.0000000000E+000       2.7777777778E-003       4.1768125254E-002
       0.0000000000E+000       3.4355360827E-002       0.0000000000E+000       5.4633276328E+001       0.0000000000E+000       0.0000000000E+000       1.0000000000E+000       7.1296015855E+001       5.5340518500E+003       6.6666666667E-002       1.0000000000E-003       1.0000000000E-003       0.0000000000E+000       1.0000000000E+000       0.0000000000E+000       2.7777777778E-003       5.0748876200E-002
       0.0000000000E+000       3.9691144380E-002       0.0000000000E+000       5.6132545806E+001       0.0000000000E+000       0.0000000000E+000       1.0000000000E+000       6.9629516893E+001       4.8339583293E+003       6.6666666667E-002       1.0000000000E-003       1.0000000000E-003       0.0000000000E+000       1.0000000000E+000       0.0000000000E+000       2.7777777778E-003       6.0537330249E-002
       0.0000000000E+000       4.5530461881E-002       0.0000000000E+000       5.7523134875E+001       0.0000000000E+000       0.0000000000E+000       1.0000000000E+000       6.8035253636E+001       4.2490822578E+003       6.6666666667E-002       1.0000000000E-003       1.0000000000E-003       0.0000000000E+000       1.0000000000E+000       0.0000000000E+000       2.7777777778E-003       7.1121367833E-002
       0.0000000000E+000       5.1917316536E-002       0.0000000000E+000       5.8827603289E+001       0.0000000000E+000       0.0000000000E+000       1.0000000000E+000       6.6520591071E+001       3.7547752382E+003       6.6666666667E-002       1.0000000000E-003       1.0000000000E-003       0.0000000000E+000       1.0000000000E+000       0.0000000000E+000       2.7777777778E-003       8.2475708520E-002
       0.0000000000E+000       5.8898847137E-002       0.0000000000E+000       6.0063259546E+001       0.0000000000E+000       0.0000000000E+000       1.0000000000E+000       6.5083712962E+001       3.3327625321E+003       6.6666666667E-002       1.0000000000E-003       1.0000000000E-003       0.0000000000E+000       1.0000000000E+000       0.0000000000E+000       2.7777777778E-003       9.4560842292E-002
       0.0000000000E+000       6.6525405813E-002       0.0000000000E+000       6.1243724312E+001       0.0000000000E+000       0.0000000000E+000       1.0000000000E+000       6.3717969698E+001       2.9692557483E+003       6.6666666667E-002       1.0000000000E-003       1.0000000000E-003       0.0000000000E+000       1.0000000000E+000       0.0000000000E+000       2.7777777778E-003       1.0732295864E-001
       0.0000000000E+000       7.4850603903E-002       0.0000000000E+000       6.2379943102E+001       0.0000000000E+000       0.0000000000E+000       1.0000000000E+000       6.2414218661E+001       2.6536850117E+003       6.6666666667E-002       1.0000000000E-003       1.0000000000E-003       0.0000000000E+000       1.0000000000E+000       0.0000000000E+000       2.7777777778E-003       1.2069487173E-001
       0.0000000000E+000       8.3931317363E-002       0.0000000000E+000       6.3480858736E+001       0.0000000000E+000       0.0000000000E+000       1.0000000000E+000       6.1162098505E+001       2.3778310754E+003       6.6666666667E-002       1.0000000000E-003       1.0000000000E-003       0.0000000000E+000       1.0000000000E+000       0.0000000000E+000       2.7777777778E-003       1.3459789787E-001
       0.0000000000E+000       9.3827641929E-002       0.0000000000E+000       6.4553865699E+001       0.0000000000E+000       0.0000000000E+000       1.0000000000E+000       5.9950721246E+001       2.1352197478E+003       6.6666666667E-002       1.0000000000E-003       1.0000000000E-003       0.0000000000E+000       1.0000000000E+000       0.0000000000E+000       2.7777777778E-003       1.4894453416E-001
       0.0000000000E+000       1.0460278706E-001       0.0000000000E+000       6.5605120270E+001       0.0000000000E+000       0.0000000000E+000       1.0000000000E+000       5.8769041163E+001       1.9206915512E+003       6.6666666667E-002       1.0000000000E-003       1.0000000000E-003       0.0000000000E+000       1.0000000000E+000       0.0000000000E+000       2.7777777778E-003       1.6364165047E-001
       0.0000000000E+000       1.1632289650E-001       0.0000000000E+000       6.6639753007E+001       0.0000000000E+000       0.0000000000E+000       1.0000000000E+000       5.7606044863E+001       1.7300906093E+003       6.6666666667E-002       1.0000000000E-003       1.0000000000E-003       0.0000000000E+000       1.0000000000E+000       0.0000000000E+000       2.7777777778E-003       1.7859377277E-001
       0.0000000000E+000       1.2905678245E-001       0.0000000000E+000       6.7662014369E+001       0.0000000000E+000       0.0000000000E+000       1.0000000000E+000       5.6450846670E+001       1.5600361106E+003       6.6666666667E-002       1.0000000000E-003       1.0000000000E-003       0.0000000000E+000       1.0000000000E+000       0.0000000000E+000       2.7777777778E-003       1.9370593897E-001
       0.0000000000E+000       1.4287555919E-001       0.0000000000E+000       6.8675374807E+001       0.0000000000E+000       0.0000000000E+000       1.0000000000E+000       5.5292740625E+001       1.4077519426E+003       6.6666666667E-002       1.0000000000E-003       1.0000000000E-003       0.0000000000E+000       1.0000000000E+000       0.0000000000E+000       2.7777777778E-003       2.0888558137E-001
       0.0000000000E+000       1.5785216215E-001       0.0000000000E+000       6.9682594856E+001       0.0000000000E+000       0.0000000000E+000       1.0000000000E+000       5.4121241314E+001       1.2709379885E+003       6.6666666667E-002       1.0000000000E-003       1.0000000000E-003       0.0000000000E+000       1.0000000000E+000       0.0000000000E+000       2.7777777778E-003       2.2404296017E-001
       0.0000000000E+000       1.7406073782E-001       0.0000000000E+000       7.0685776895E+001       0.0000000000E+000       0.0000000000E+000       1.0000000000E+000       5.2926133558E+001       1.1476717565E+003       6.6666666667E-002       1.0000000000E-003       1.0000000000E-003       0.0000000000E+000       1.0000000000E+000       0.0000000000E+000       2.7777777778E-003       2.3908985102E-001
       0.0000000000E+000       1.9157589134E-001       0.0000000000E+000       7.1686407266E+001       0.0000000000E+000       0.0000000000E+000       1.0000000000E+000       5.1697542002E+001       1.0363324629E+003       6.6666666667E-002       1.0000000000E-003       1.0000000000E-003       0.0000000000E+000       1.0000000000E+000       0.0000000000E+000       2.7777777778E-003       2.5393646304E-001
       0.0000000000E+000       2.1047177964E-001       0.0000000000E+000       7.2685394844E+001       0.0000000000E+000       0.0000000000E+000       1.0000000000E+000       5.0426024529E+001       9.3554201246E+002       6.6666666667E-002       1.0000000000E-003       1.0000000000E-003       0.0000000000E+000       1.0000000000E+000       0.0000000000E+000       2.7777777778E-003       2.6848689217E-001
       0.0000000000E+000       2.3082104100E-001       0.0000000000E+000       7.3683109503E+001       0.0000000000E+000       0.0000000000E+000       1.0000000000E+000       4.9102687834E+001       8.4411890803E+002       6.6666666667E-002       1.0000000000E-003       1.0000000000E-003       0.0000000000E+000       1.0000000000E+000       0.0000000000E+000       2.7777777778E-003       2.8263373324E-001
       0.0000000000E+000       2.5269355587E-001       0.0000000000E+000       7.4679421379E+001       0.0000000000E+000       0.0000000000E+000       1.0000000000E+000       4.7719320040E+001       7.6104219931E+002       6.6666666667E-002       1.0000000000E-003       1.0000000000E-003       0.0000000000E+000       1.0000000000E+000       0.0000000000E+000       2.7777777778E-003       2.9625271078E-001
       0.0000000000E+000       2.7615503885E-001       0.0000000000E+000       7.5673739480E+001       0.0000000000E+000       0.0000000000E+000       1.0000000000E+000       4.6268534398E+001       6.8542332598E+002       6.6666666667E-002       1.0000000000E-003       1.0000000000E-003       0.0000000000E+000       1.0000000000E+000       0.0000000000E+000       2.7777777778E-003       3.0919828345E-001
       0.0000000000E+000       3.0126546880E-001       0.0000000000E+000       7.6665046399E+001       0.0000000000E+000       0.0000000000E+000       1.0000000000E+000       4.4743920347E+001       6.1648422186E+002       6.6666666667E-002       1.0000000000E-003       1.0000000000E-003       0.0000000000E+000       1.0000000000E+000       0.0000000000E+000       2.7777777778E-003       3.2130110641E-001
       0.0000000000E+000       3.2807737251E-001       0.0000000000E+000       7.7651924849E+001       0.0000000000E+000       0.0000000000E+000       1.0000000000E+000       4.3140203138E+001       5.5354041026E+002       6.6666666667E-002       1.0000000000E-003       1.0000000000E-003       0.0000000000E+000       1.0000000000E+000       0.0000000000E+000       2.7777777778E-003       3.3236802393E-001
       0.0000000000E+000       3.5663398698E-001       0.0000000000E+000       7.8632571474E+001       0.0000000000E+000       0.0000000000E+000       1.0000000000E+000       4.1453420196E+001       4.9598809255E+002       6.6666666667E-002       1.0000000000E-003       1.0000000000E-003       0.0000000000E+000       1.0000000000E+000       0.0000000000E+000       2.7777777778E-003       3.4218498247E-001
       0.0000000000E+000       3.8696733669E-001       0.0000000000E+000       7.9604793653E+001       0.0000000000E+000       0.0000000000E+000       1.0000000000E+000       3.9681130498E+001       4.4329445589E+002       6.6666666667E-002       1.0000000000E-003       1.0000000000E-003       0.0000000000E+000       1.0000000000E+000       0.0000000000E+000       2.7777777778E-003       3.5052299626E-001
       0.0000000000E+000       4.1909627393E-001       0.0000000000E+000       8.0565985343E+001       0.0000000000E+000       0.0000000000E+000       1.0000000000E+000       3.7822682164E+001       3.9499062915E+002       6.6666666667E-002       1.0000000000E-003       1.0000000000E-003       0.0000000000E+000       1.0000000000E+000       0.0000000000E+000       2.7777777778E-003       3.5714715125E-001
       0.0000000000E+000       4.5302454235E-001       0.0000000000E+000       8.1513077978E+001       0.0000000000E+000       0.0000000000E+000       1.0000000000E+000       3.5879573613E+001       3.5066691611E+002       6.6666666667E-002       1.0000000000E-003       1.0000000000E-003       0.0000000000E+000       1.0000000000E+000       0.0000000000E+000       2.7777777778E-003       3.6182865567E-001
       0.0000000000E+000       4.8873893491E-001       0.0000000000E+000       8.2442461395E+001       0.0000000000E+000       0.0000000000E+000       1.0000000000E+000       3.3855956412E+001       3.0997013942E+002       6.6666666667E-002       1.0000000000E-003       1.0000000000E-003       0.0000000000E+000       1.0000000000E+000       0.0000000000E+000       2.7777777778E-003       3.6436014914E-001
       0.0000000000E+000       5.2620762723E-001       0.0000000000E+000       8.3349867698E+001       0.0000000000E+000       0.0000000000E+000       1.0000000000E+000       3.1759345290E+001       2.7260313946E+002       6.6666666667E-002       1.0000000000E-003       1.0000000000E-003       0.0000000000E+000       1.0000000000E+000       0.0000000000E+000       2.7777777778E-003       3.6457484307E-001
       0.0000000000E+000       5.6537877348E-001       0.0000000000E+000       8.4230207778E+001       0.0000000000E+000       0.0000000000E+000       1.0000000000E+000       2.9601624010E+001       2.3832667891E+002       6.6666666667E-002       1.0000000000E-003       1.0000000000E-003       0.0000000000E+000       1.0000000000E+000       0.0000000000E+000       2.7777777778E-003       3.6237052441E-001
       0.0000000000E+000       6.0617945461E-001       0.0000000000E+000       8.5077346948E+001       0.0000000000E+000       0.0000000000E+000       1.0000000000E+000       2.7400462373E+001       2.0696416959E+002       6.6666666667E-002       1.0000000000E-003       1.0000000000E-003       0.0000000000E+000       1.0000000000E+000       0.0000000000E+000       2.7777777778E-003       3.5773988077E-001
       0.0000000000E+000       6.4851506570E-001       0.0000000000E+000       8.5883805568E+001       0.0000000000E+000       0.0000000000E+000       1.0000000000E+000       2.5181276118E+001       1.7840965314E+002       6.6666666667E-002       1.0000000000E-003       1.0000000000E-003       0.0000000000E+000       1.0000000000E+000       0.0000000000E+000       2.7777777778E-003       3.5080864590E-001
       0.0000000000E+000       6.9226922041E-001       0.0000000000E+000       8.6640379873E+001       0.0000000000E+000       0.0000000000E+000       1.0000000000E+000       2.2979826115E+001       1.5263906177E+002       6.6666666667E-002       1.0000000000E-003       1.0000000000E-003       0.0000000000E+000       1.0000000000E+000       0.0000000000E+000       2.7777777778E-003       3.4188176956E-001
       0.0000000000E+000       7.3730423491E-001       0.0000000000E+000       8.7335713343E+001       0.0000000000E+000       0.0000000000E+000       1.0000000000E+000       2.0845366141E+001       1.2972340723E+002       6.6666666667E-002       1.0000000000E-003       1.0000000000E-003       0.0000000000E+000       1.0000000000E+000       0.0000000000E+000       2.7777777778E-003       3.3149295413E-001
       0.0000000000E+000       7.8346223196E-001       0.0000000000E+000       8.7955937606E+001       0.0000000000E+000       0.0000000000E+000       1.0000000000E+000       1.8843722616E+001       1.0983937968E+002       6.6666666667E-002       1.0000000000E-003       1.0000000000E-003       0.0000000000E+000       1.0000000000E+000       0.0000000000E+000       2.7777777778E-003       3.2044047645E-001
       0.0000000000E+000       8.3056687844E-001       0.0000000000E+000       8.8484667647E+001       0.0000000000E+000       0.0000000000E+000       1.0000000000E+000       1.7058627655E+001       9.3267615263E+001       6.6666666667E-002       1.0000000000E-003       1.0000000000E-003       0.0000000000E+000       1.0000000000E+000       0.0000000000E+000       2.7777777778E-003       3.0976942886E-001
       0.0000000000E+000       8.7842573817E-001       0.0000000000E+000       8.8903822874E+001       0.0000000000E+000       0.0000000000E+000       1.0000000000E+000       1.5588265646E+001       8.0364601584E+001       6.6666666667E-002       1.0000000000E-003       1.0000000000E-003       0.0000000000E+000       1.0000000000E+000       0.0000000000E+000       2.7777777778E-003       3.0064088834E-001
       0.0000000000E+000       9.2683318857E-001       0.0000000000E+000       8.9195686432E+001       0.0000000000E+000       0.0000000000E+000       1.0000000000E+000       1.4533864451E+001       7.1500025768E+001       6.6666666667E-002       1.0000000000E-003       1.0000000000E-003       0.0000000000E+000       1.0000000000E+000       0.0000000000E+000       2.7777777778E-003       2.9406881991E-001
       0.0000000000E+000       9.7557381694E-001       0.0000000000E+000       8.9345959543E+001       0.0000000000E+000       0.0000000000E+000       1.0000000000E+000       1.3980664506E+001       6.6974489080E+001       6.6666666667E-002       1.0000000000E-003       1.0000000000E-003       0.0000000000E+000       1.0000000000E+000       0.0000000000E+000       2.7777777778E-003       2.9066434868E-001
       0.0000000000E+000       1.0244261831E+000       0.0000000000E+000       8.9346663817E+001       0.0000000000E+000       0.0000000000E+000       1.0000000000E+000       1.3977719973E+001       6.6953451903E+001       6.6666666667E-002       1.0000000000E-003       1.0000000000E-003       0.0000000000E+000       1.0000000000E+000       0.0000000000E+000       2.7777777778E-003       2.9063471286E-001
       0.0000000000E+000       1.0731668114E+000       0.0000000000E+000       8.9197755820E+001       0.0000000000E+000       0.0000000000E+000       1.0000000000E+000       1.4525288731E+001       7.1437970603E+001       6.6666666667E-002       1.0000000000E-003       1.0000000000E-003       0.0000000000E+000       1.0000000000E+000       0.0000000000E+000       2.7777777778E-003       2.9398142674E-001
       0.0000000000E+000       1.1215742618E+000       0.0000000000E+000       8.8907137253E+001       0.0000000000E+000       0.0000000000E+000       1.0000000000E+000       1.5574758701E+001       8.0264496448E+001       6.6666666667E-002       1.0000000000E-003       1.0000000000E-003       0.0000000000E+000       1.0000000000E+000       0.0000000000E+000       2.7777777778E-003       3.0050135896E-001
       0.0000000000E+000       1.1694331216E+000       0.0000000000E+000       8.8489058419E+001       0.0000000000E+000       0.0000000000E+000       1.0000000000E+000       1.7041141821E+001       9.3133698935E+001       6.6666666667E-002       1.0000000000E-003       1.0000000000E-003       0.0000000000E+000       1.0000000000E+000       0.0000000000E+000       2.7777777778E-003       3.0958808948E-001
       0.0000000000E+000       1.2165377680E+000       0.0000000000E+000       8.7961223141E+001       0.0000000000E+000       0.0000000000E+000       1.0000000000E+000       1.8823245263E+001       1.0967622564E+002       6.6666666667E-002       1.0000000000E-003       1.0000000000E-003       0.0000000000E+000       1.0000000000E+000       0.0000000000E+000       2.7777777778E-003       3.2023020072E-001
       0.0000000000E+000       1.2626957651E+000       0.0000000000E+000       8.7341726553E+001       0.0000000000E+000       0.0000000000E+000       1.0000000000E+000       2.0822766297E+001       1.2953510195E+002       6.6666666667E-002       1.0000000000E-003       1.0000000000E-003       0.0000000000E+000       1.0000000000E+000       0.0000000000E+000       2.7777777778E-003       3.3126615674E-001
       0.0000000000E+000       1.3077307796E+000       0.0000000000E+000       8.6646981226E+001       0.0000000000E+000       0.0000000000E+000       1.0000000000E+000       2.2955793660E+001       1.5242877093E+002       6.6666666667E-002       1.0000000000E-003       1.0000000000E-003       0.0000000000E+000       1.0000000000E+000       0.0000000000E+000       2.7777777778E-003       3.4164862075E-001
       0.0000000000E+000       1.3514849343E+000       0.0000000000E+000       8.5890884728E+001       0.0000000000E+000       0.0000000000E+000       1.0000000000E+000       2.5156326153E+001       1.7817954171E+002       6.6666666667E-002       1.0000000000E-003       1.0000000000E-003       0.0000000000E+000       1.0000000000E+000       0.0000000000E+000       2.7777777778E-003       3.5057667075E-001
       0.0000000000E+000       1.3938205454E+000       0.0000000000E+000       8.5084818929E+001       0.0000000000E+000       0.0000000000E+000       1.0000000000E+000       2.7374967135E+001       2.0671551062E+002       6.6666666667E-002       1.0000000000E-003       1.0000000000E-003       0.0000000000E+000       1.0000000000E+000       0.0000000000E+000       2.7777777778E-003       3.5751428680E-001
       0.0000000000E+000       1.4346212265E+000       0.0000000000E+000       8.4238007674E+001       0.0000000000E+000       0.0000000000E+000       1.0000000000E+000       2.9575848635E+001       2.3806001631E+002       6.6666666667E-002       1.0000000000E-003       1.0000000000E-003       0.0000000000E+000       1.0000000000E+000       0.0000000000E+000       2.7777777778E-003       3.6215472876E-001
       0.0000000000E+000       1.4737923728E+000       0.0000000000E+000       8.3357945860E+001       0.0000000000E+000       0.0000000000E+000       1.0000000000E+000       3.1733477853E+001       2.7231843751E+002       6.6666666667E-002       1.0000000000E-003       1.0000000000E-003       0.0000000000E+000       1.0000000000E+000       0.0000000000E+000       2.7777777778E-003       3.6437095869E-001
       0.0000000000E+000       1.5112610651E+000       0.0000000000E+000       8.2450779583E+001       0.0000000000E+000       0.0000000000E+000       1.0000000000E+000       3.3830130357E+001       3.0966689747E+002       6.6666666667E-002       1.0000000000E-003       1.0000000000E-003       0.0000000000E+000       1.0000000000E+000       0.0000000000E+000       2.7777777778E-003       3.6416936339E-001
       0.0000000000E+000       1.5469754577E+000       0.0000000000E+000       8.1521606480E+001       0.0000000000E+000       0.0000000000E+000       1.0000000000E+000       3.5853883618E+001       3.5034424821E+002       6.6666666667E-002       1.0000000000E-003       1.0000000000E-003       0.0000000000E+000       1.0000000000E+000       0.0000000000E+000       2.7777777778E-003       3.6165150548E-001
       0.0000000000E+000       1.5809037261E+000       0.0000000000E+000       8.0574700860E+001       0.0000000000E+000       0.0000000000E+000       1.0000000000E+000       3.7797195084E+001       3.9464731545E+002       6.6666666667E-002       1.0000000000E-003       1.0000000000E-003       0.0000000000E+000       1.0000000000E+000       0.0000000000E+000       2.7777777778E-003       3.5698371780E-001
       0.0000000000E+000       1.6130326633E+000       0.0000000000E+000       7.9613677759E+001       0.0000000000E+000       0.0000000000E+000       1.0000000000E+000       3.9655892870E+001       4.4292897341E+002       6.6666666667E-002       1.0000000000E-003       1.0000000000E-003       0.0000000000E+000       1.0000000000E+000       0.0000000000E+000       2.7777777778E-003       3.5037304225E-001
       0.0000000000E+000       1.6433660130E+000       0.0000000000E+000       7.8641609490E+001       0.0000000000E+000       0.0000000000E+000       1.0000000000E+000       4.1428463401E+001       4.9559863174E+002       6.6666666667E-002       1.0000000000E-003       1.0000000000E-003       0.0000000000E+000       1.0000000000E+000       0.0000000000E+000       2.7777777778E-003       3.4204804978E-001
       0.0000000000E+000       1.6719226275E+000       0.0000000000E+000       7.7661105002E+001       0.0000000000E+000       0.0000000000E+000       1.0000000000E+000       4.3115546996E+001       5.5312488214E+002       6.6666666667E-002       1.0000000000E-003       1.0000000000E-003       0.0000000000E+000       1.0000000000E+000       0.0000000000E+000       2.7777777778E-003       3.3224350443E-001
       0.0000000000E+000       1.6987345312E+000       0.0000000000E+000       7.6674359189E+001       0.0000000000E+000       0.0000000000E+000       1.0000000000E+000       4.4719575675E+001       6.1604025925E+002       6.6666666667E-002       1.0000000000E-003       1.0000000000E-003       0.0000000000E+000       1.0000000000E+000       0.0000000000E+000       2.7777777778E-003       3.2118829428E-001
       0.0000000000E+000       1.7238449611E+000       0.0000000000E+000       7.5683177185E+001       0.0000000000E+000       0.0000000000E+000       1.0000000000E+000       4.6244504867E+001       6.8494828122E+002       6.6666666667E-002       1.0000000000E-003       1.0000000000E-003       0.0000000000E+000       1.0000000000E+000       0.0000000000E+000       2.7777777778E-003       3.0909641471E-001
       0.0000000000E+000       1.7473064441E+000       0.0000000000E+000       7.4688977672E+001       0.0000000000E+000       0.0000000000E+000       1.0000000000E+000       4.7695603576E+001       7.6053313995E+002       6.6666666667E-002       1.0000000000E-003       1.0000000000E-003       0.0000000000E+000       1.0000000000E+000       0.0000000000E+000       2.7777777778E-003       2.9616099354E-001
       0.0000000000E+000       1.7691789590E+000       0.0000000000E+000       7.3692779143E+001       0.0000000000E+000       0.0000000000E+000       1.0000000000E+000       4.9079277725E+001       8.4357261121E+002       6.6666666667E-002       1.0000000000E-003       1.0000000000E-003       0.0000000000E+000       1.0000000000E+000       0.0000000000E+000       2.7777777778E-003       2.8255137098E-001
       0.0000000000E+000       1.7895282204E+000       0.0000000000E+000       7.2695173429E+001       0.0000000000E+000       0.0000000000E+000       1.0000000000E+000       5.0402910329E+001       9.3495495822E+002       6.6666666667E-002       1.0000000000E-003       1.0000000000E-003       0.0000000000E+000       1.0000000000E+000       0.0000000000E+000       2.7777777778E-003       2.6841310148E-001
       0.0000000000E+000       1.8084241087E+000       0.0000000000E+000       7.1696291029E+001       0.0000000000E+000       0.0000000000E+000       1.0000000000E+000       5.1674710310E+001       1.0357008260E+003       6.6666666667E-002       1.0000000000E-003       1.0000000000E-003       0.0000000000E+000       1.0000000000E+000       0.0000000000E+000       2.7777777778E-003       2.5387048709E-001