 VARIABLES ="X","Y","U","W","P","C","T","k","eps", "v2","omega","nuSA","yplus","RHO","Pe","mu","mut"
 ZONE I=            98  J=            40  F=POINT 
       0.0000000000E+000      -9.2667936736E-003       1.1849986677E-005       8.6232399289E+001      -1.7879816758E+007       0.0000000000E+000       1.0000000014E+000       9.4090521787E+000       5.2752762691E+001       6.6666666667E-002       1.0000000000E-003       1.0000000000E-003       0.0000000000E+000       1.0000000015E+000       0.0000000000E+000       2.7777777806E-003       1.7222660834E-001
       0.0000000000E+000       9.2667936736E-003       1.1849986677E-005       8.6232399289E+001      -1.7879816758E+007       0.0000000000E+000       1.0000000014E+000       9.4090521787E+000       5.2752762691E+001       6.6666666667E-002       1.0000000000E-003       1.0000000000E-003       0.0000000000E+000       1.0000000015E+000       0.0000000000E+000       2.7777777806E-003       1.7222660834E-001
       0.0000000000E+000       2.7920250859E-002       8.3628222966E-006       8.6199800857E+001      -1.7879816758E+007       0.0000000000E+000       1.0000000014E+000       9.5265057761E+000       5.3725879712E+001       6.6666666667E-002       1.0000000000E-003       1.0000000000E-003       0.0000000000E+000       1.0000000015E+000       0.0000000000E+000       2.7777777806E-003       1.7328628445E-001
       0.0000000000E+000       4.6803837788E-002       1.1806319504E-006       8.6133926135E+001      -1.7879816758E+007       0.0000000000E+000       1.0000000014E+000       9.7627277767E+000       5.5695950926E+001       6.6666666667E-002       1.0000000000E-003       1.0000000000E-003       0.0000000000E+000       1.0000000015E+000       0.0000000000E+000       2.7777777806E-003       1.7541087739E-001
       0.0000000000E+000       6.5897829027E-002      -6.3675108744E-006       8.6034912312E+001      -1.7879816758E+007       0.0000000000E+000       1.0000000014E+000       1.0115145552E+001       5.8664510374E+001       6.6666666667E-002       1.0000000000E-003       1.0000000000E-003       0.0000000000E+000       1.0000000015E+000       0.0000000000E+000       2.7777777806E-003       1.7856992603E-001
       0.0000000000E+000       8.5181526490E-002      -1.4194231361E-005       8.5903579509E+001      -1.7879816757E+007       0.0000000000E+000       1.0000000014E+000       1.0577648615E+001       6.2611878023E+001       6.6666666667E-002       1.0000000000E-003       1.0000000000E-003       0.0000000000E+000       1.0000000015E+000       0.0000000000E+000       2.7777777806E-003       1.8269621090E-001
       0.0000000000E+000       1.0463334093E-001      -2.2234040191E-005       8.5741305045E+001      -1.7879816757E+007       0.0000000000E+000       1.0000000014E+000       1.1141380562E+001       6.7501454178E+001       6.6666666667E-002       1.0000000000E-003       1.0000000000E-003       0.0000000000E+000       1.0000000015E+000       0.0000000000E+000       2.7777777806E-003       1.8768806089E-001
       0.0000000000E+000       1.2423088209E-001      -3.0438132486E-005       8.5549859670E+001      -1.7879816757E+007       0.0000000000E+000       1.0000000014E+000       1.1795703664E+001       7.3285171579E+001       6.6666666667E-002       1.0000000000E-003       1.0000000000E-003       0.0000000000E+000       1.0000000015E+000       0.0000000000E+000       2.7777777806E-003       1.9341649335E-001
       0.0000000000E+000       1.4395105684E-001      -3.8770473973E-005       8.5331238300E+001      -1.7879816757E+007       0.0000000000E+000       1.0000000014E+000       1.2529150662E+001       7.9909121231E+001       6.6666666667E-002       1.0000000000E-003       1.0000000000E-003       0.0000000000E+000       1.0000000015E+000       0.0000000000E+000       2.7777777806E-003       1.9973574329E-001
       0.0000000000E+000       1.6377017442E-001      -4.7203879233E-005       8.5087512322E+001      -1.7879816756E+007       0.0000000000E+000       1.0000000014E+000       1.3330218779E+001       8.7318494576E+001       6.6666666667E-002       1.0000000000E-003       1.0000000000E-003       0.0000000000E+000       1.0000000015E+000       0.0000000000E+000       2.7777777806E-003       2.0649434860E-001
       0.0000000000E+000       1.8366405776E-001      -5.5716076313E-005       8.4820718462E+001      -1.7879816756E+007       0.0000000000E+000       1.0000000014E+000       1.4187938965E+001       9.5461332465E+001       6.6666666667E-002       1.0000000000E-003       1.0000000000E-003       0.0000000000E+000       1.0000000015E+000       0.0000000000E+000       2.7777777806E-003       2.1354452315E-001
       0.0000000000E+000       2.0360815989E-001      -6.4288730129E-005       8.4532786809E+001      -1.7879816756E+007       0.0000000000E+000       1.0000000014E+000       1.5092219726E+001       1.0429096366E+002       6.6666666667E-002       1.0000000000E-003       1.0000000000E-003       0.0000000000E+000       1.0000000015E+000       0.0000000000E+000       2.7777777806E-003       2.2074871385E-001
       0.0000000000E+000       2.2357768425E-001      -7.2906553744E-005       8.4225502473E+001      -1.7879816756E+007       0.0000000000E+000       1.0000000014E+000       1.6034006192E+001       1.1376729506E+002       6.6666666667E-002       1.0000000000E-003       1.0000000000E-003       0.0000000000E+000       1.0000000015E+000       0.0000000000E+000       2.7777777806E-003       2.2798333291E-001
       0.0000000000E+000       2.4354770750E-001      -8.1555443160E-005       8.3900492000E+001      -1.7879816755E+007       0.0000000000E+000       1.0000000014E+000       1.7005308878E+001       1.2385724117E+002       6.6666666667E-002       1.0000000000E-003       1.0000000000E-003       0.0000000000E+000       1.0000000015E+000       0.0000000000E+000       2.7777777806E-003       2.3514024834E-001
       0.0000000000E+000       2.6349330387E-001      -9.0221531301E-005       8.3559225833E+001      -1.7879816755E+007       0.0000000000E+000       1.0000000014E+000       1.7999152442E+001       1.3453458847E+002       6.6666666667E-002       1.0000000000E-003       1.0000000000E-003       0.0000000000E+000       1.0000000015E+000       0.0000000000E+000       2.7777777806E-003       2.4212676320E-001
       0.0000000000E+000       2.8338966932E-001      -9.8890943554E-005       8.3203029839E+001      -1.7879816755E+007       0.0000000000E+000       1.0000000014E+000       1.9009483008E+001       1.4577953804E+002       6.6666666667E-002       1.0000000000E-003       1.0000000000E-003       0.0000000000E+000       1.0000000015E+000       0.0000000000E+000       2.7777777806E-003       2.4886471796E-001
       0.0000000000E+000       3.0321224457E-001      -1.0754973956E-004       8.2833100956E+001      -1.7879816755E+007       0.0000000000E+000       1.0000000014E+000       2.0031059961E+001       1.5757810048E+002       6.6666666667E-002       1.0000000000E-003       1.0000000000E-003       0.0000000000E+000       1.0000000015E+000       0.0000000000E+000       2.7777777806E-003       2.5528917336E-001
       0.0000000000E+000       3.2293683551E-001      -1.1618402290E-004       8.2450523916E+001      -1.7879816755E+007       0.0000000000E+000       1.0000000014E+000       2.1059347843E+001       1.6992145539E+002       6.6666666667E-002       1.0000000000E-003       1.0000000000E-003       0.0000000000E+000       1.0000000015E+000       0.0000000000E+000       2.7777777806E-003       2.6134696489E-001
       0.0000000000E+000       3.4253972973E-001      -1.2477845164E-004       8.2056287256E+001      -1.7879816754E+007       0.0000000000E+000       1.0000000014E+000       2.2090416618E+001       1.8280534029E+002       6.6666666667E-002       1.0000000000E-003       1.0000000000E-003       0.0000000000E+000       1.0000000015E+000       0.0000000000E+000       2.7777777806E-003       2.6699529280E-001
       0.0000000000E+000       3.6199780814E-001      -1.3331719960E-004       8.1651297730E+001      -1.7879816754E+007       0.0000000000E+000       1.0000000014E+000       2.3120853877E+001       1.9622950190E+002       6.6666666667E-002       1.0000000000E-003       1.0000000000E-003       0.0000000000E+000       1.0000000015E+000       0.0000000000E+000       2.7777777806E-003       2.7220042746E-001
       0.0000000000E+000       3.8128865043E-001      -1.4178373694E-004       8.1236392801E+001      -1.7879816754E+007       0.0000000000E+000       1.0000000014E+000       2.4147689789E+001       2.1019722292E+002       6.6666666667E-002       1.0000000000E-003       1.0000000000E-003       0.0000000000E+000       1.0000000015E+000       0.0000000000E+000       2.7777777806E-003       2.7693655876E-001
       0.0000000000E+000       4.0039063353E-001      -1.5016055718E-004       8.0812351161E+001      -1.7879816754E+007       0.0000000000E+000       1.0000000014E+000       2.5168334146E+001       2.2471492581E+002       6.6666666667E-002       1.0000000000E-003       1.0000000000E-003       0.0000000000E+000       1.0000000015E+000       0.0000000000E+000       2.7777777806E-003       2.8118478999E-001
       0.0000000000E+000       4.1928302209E-001      -1.5842872297E-004       8.0379901458E+001      -1.7879816753E+007       0.0000000000E+000       1.0000000014E+000       2.6180524170E+001       2.3979184967E+002       6.6666666667E-002       1.0000000000E-003       1.0000000000E-003       0.0000000000E+000       1.0000000015E+000       0.0000000000E+000       2.7777777806E-003       2.8493226304E-001
       0.0000000000E+000       4.3794605030E-001      -1.6656877259E-004       7.9939729363E+001      -1.7879816753E+007       0.0000000000E+000       1.0000000014E+000       2.7182281533E+001       2.5543979350E+002       6.6666666667E-002       1.0000000000E-003       1.0000000000E-003       0.0000000000E+000       1.0000000015E+000       0.0000000000E+000       2.7777777806E-003       2.8817139623E-001
       0.0000000000E+000       4.5636099455E-001      -1.7456018111E-004       7.9492483256E+001      -1.7879816753E+007       0.0000000000E+000       1.0000000014E+000       2.8171877062E+001       2.7167291876E+002       6.6666666667E-002       1.0000000000E-003       1.0000000000E-003       0.0000000000E+000       1.0000000015E+000       0.0000000000E+000       2.7777777806E-003       2.9089921541E-001
       0.0000000000E+000       4.7451023629E-001      -1.8238141692E-004       7.9038778711E+001      -1.7879816753E+007       0.0000000000E+000       1.0000000014E+000       2.9147801790E+001       2.8850760495E+002       6.6666666667E-002       1.0000000000E-003       1.0000000000E-003       0.0000000000E+000       1.0000000015E+000       0.0000000000E+000       2.7777777806E-003       2.9311676085E-001
       0.0000000000E+000       4.9237731502E-001      -1.9001047230E-004       7.8579201980E+001      -1.7879816753E+007       0.0000000000E+000       1.0000000014E+000       3.0108743160E+001       3.0596235292E+002       6.6666666667E-002       1.0000000000E-003       1.0000000000E-003       0.0000000000E+000       1.0000000015E+000       0.0000000000E+000       2.7777777806E-003       2.9482855435E-001
       0.0000000000E+000       5.0994697103E-001      -1.9742315850E-004       7.8114312636E+001      -1.7879816752E+007       0.0000000000E+000       1.0000000014E+000       3.1053565413E+001       3.2405773279E+002       6.6666666667E-002       1.0000000000E-003       1.0000000000E-003       0.0000000000E+000       1.0000000015E+000       0.0000000000E+000       2.7777777806E-003       2.9604211379E-001
       0.0000000000E+000       5.2720517819E-001      -2.0459502724E-004       7.7644645513E+001      -1.7879816752E+007       0.0000000000E+000       1.0000000014E+000       3.1981293380E+001       3.4281637436E+002       6.6666666667E-002       1.0000000000E-003       1.0000000000E-003       0.0000000000E+000       1.0000000015E+000       0.0000000000E+000       2.7777777806E-003       2.9676750523E-001
       0.0000000000E+000       5.4413916653E-001      -2.1150049210E-004       7.7170712046E+001      -1.7879816752E+007       0.0000000000E+000       1.0000000014E+000       3.2891099025E+001       3.6226299122E+002       6.6666666667E-002       1.0000000000E-003       1.0000000000E-003       0.0000000000E+000       1.0000000015E+000       0.0000000000E+000       2.7777777806E-003       2.9701693182E-001
       0.0000000000E+000       5.6073743527E-001      -2.1811303921E-004       7.6693001126E+001      -1.7879816752E+007       0.0000000000E+000       1.0000000014E+000       3.3782290217E+001       3.8242444388E+002       6.6666666667E-002       1.0000000000E-003       1.0000000000E-003       0.0000000000E+000       1.0000000015E+000       0.0000000000E+000       2.7777777806E-003       2.9680434699E-001
       0.0000000000E+000       5.7698975628E-001      -2.2440448080E-004       7.6211979516E+001      -1.7879816752E+007       0.0000000000E+000       1.0000000014E+000       3.4654301473E+001       4.0332985298E+002       6.6666666667E-002       1.0000000000E-003       1.0000000000E-003       0.0000000000E+000       1.0000000015E+000       0.0000000000E+000       2.7777777806E-003       2.9614508533E-001
       0.0000000000E+000       5.9288716879E-001      -2.3034742353E-004       7.5728091905E+001      -1.7879816752E+007       0.0000000000E+000       1.0000000014E+000       3.5506686131E+001       4.2501074336E+002       6.6666666667E-002       1.0000000000E-003       1.0000000000E-003       0.0000000000E+000       1.0000000015E+000       0.0000000000E+000       2.7777777806E-003       2.9505552101E-001
       0.0000000000E+000       6.0842196558E-001      -2.3591397261E-004       7.5241760632E+001      -1.7879816751E+007       0.0000000000E+000       1.0000000014E+000       3.6339108928E+001       4.4750123295E+002       6.6666666667E-002       1.0000000000E-003       1.0000000000E-003       0.0000000000E+000       1.0000000015E+000       0.0000000000E+000       2.7777777806E-003       2.9355273256E-001
       0.0000000000E+000       6.2358767156E-001      -2.4107516662E-004       7.4753385121E+001      -1.7879816751E+007       0.0000000000E+000       1.0000000014E+000       3.7151341286E+001       4.7083826821E+002       6.6666666667E-002       1.0000000000E-003       1.0000000000E-003       0.0000000000E+000       1.0000000015E+000       0.0000000000E+000       2.7777777806E-003       2.9165421559E-001
       0.0000000000E+000       6.3837901513E-001      -2.4580328255E-004       7.4263341078E+001      -1.7879816751E+007       0.0000000000E+000       1.0000000014E+000       3.7943256428E+001       4.9506190763E+002       6.6666666667E-002       1.0000000000E-003       1.0000000000E-003       0.0000000000E+000       1.0000000015E+000       0.0000000000E+000       2.7777777806E-003       2.8937760228E-001
       0.0000000000E+000       6.5279189332E-001      -2.5006951519E-004       7.3771979433E+001      -1.7879816751E+007       0.0000000000E+000       1.0000000014E+000       3.8714825407E+001       5.2021565676E+002       6.6666666667E-002       1.0000000000E-003       1.0000000000E-003       0.0000000000E+000       1.0000000015E+000       0.0000000000E+000       2.7777777806E-003       2.8674041107E-001
       0.0000000000E+000       6.6682333117E-001      -2.5384718475E-004       7.3279625115E+001      -1.7879816751E+007       0.0000000000E+000       1.0000000014E+000       3.9466113839E+001       5.4634685780E+002       6.6666666667E-002       1.0000000000E-003       1.0000000000E-003       0.0000000000E+000       1.0000000015E+000       0.0000000000E+000       2.7777777806E-003       2.8375982830E-001
       0.0000000000E+000       6.8047143635E-001      -2.5710991533E-004       7.2786575617E+001      -1.7879816751E+007       0.0000000000E+000       1.0000000014E+000       4.0197279188E+001       5.7350713640E+002       6.6666666667E-002       1.0000000000E-003       1.0000000000E-003       0.0000000000E+000       1.0000000015E+000       0.0000000000E+000       2.7777777806E-003       2.8045252505E-001
       0.0000000000E+000       6.9373534961E-001      -2.5983230684E-004       7.2293099438E+001      -1.7879816751E+007       0.0000000000E+000       1.0000000014E+000       4.0908568488E+001       6.0175290869E+002       6.6666666667E-002       1.0000000000E-003       1.0000000000E-003       0.0000000000E+000       1.0000000015E+000       0.0000000000E+000       2.7777777806E-003       2.7683451252E-001
       0.0000000000E+000       7.0661519181E-001      -2.6199274340E-004       7.1799434395E+001      -1.7879816751E+007       0.0000000000E+000       1.0000000014E+000       4.1600316400E+001       6.3114595036E+002       6.6666666667E-002       1.0000000000E-003       1.0000000000E-003       0.0000000000E+000       1.0000000015E+000       0.0000000000E+000       2.7777777806E-003       2.7292103992E-001
       0.0000000000E+000       7.1911200840E-001      -2.6357106503E-004       7.1305785866E+001      -1.7879816751E+007       0.0000000000E+000       1.0000000014E+000       4.2272943519E+001       6.6175402972E+002       6.6666666667E-002       1.0000000000E-003       1.0000000000E-003       0.0000000000E+000       1.0000000015E+000       0.0000000000E+000       2.7777777806E-003       2.6872653731E-001
       0.0000000000E+000       7.3122771176E-001      -2.6455013313E-004       7.0812324979E+001      -1.7879816750E+007       0.0000000000E+000       1.0000000014E+000       4.2926954833E+001       6.9365160581E+002       6.6666666667E-002       1.0000000000E-003       1.0000000000E-003       0.0000000000E+000       1.0000000015E+000       0.0000000000E+000       2.7777777806E-003       2.6426460532E-001
       0.0000000000E+000       7.4296502236E-001      -2.6491622626E-004       7.0319186804E+001      -1.7879816750E+007       0.0000000000E+000       1.0000000014E+000       4.3562938265E+001       7.2692059781E+002       6.6666666667E-002       1.0000000000E-003       1.0000000000E-003       0.0000000000E+000       1.0000000015E+000       0.0000000000E+000       2.7777777806E-003       2.5954805026E-001
       0.0000000000E+000       7.5432740911E-001      -2.6465883822E-004       6.9826468560E+001      -1.7879816750E+007       0.0000000000E+000       1.0000000014E+000       4.4181563215E+001       7.6165123429E+002       6.6666666667E-002       1.0000000000E-003       1.0000000000E-003       0.0000000000E+000       1.0000000015E+000       0.0000000000E+000       2.7777777806E-003       2.5458896140E-001
       0.0000000000E+000       7.6531902954E-001      -2.6377308866E-004       6.9334227917E+001      -1.7879816750E+007       0.0000000000E+000       1.0000000014E+000       4.4783579055E+001       7.9794293992E+002       6.6666666667E-002       1.0000000000E-003       1.0000000000E-003       0.0000000000E+000       1.0000000015E+000       0.0000000000E+000       2.7777777806E-003       2.4939884165E-001
       0.0000000000E+000       7.7594467035E-001      -2.6225691418E-004       6.8842481383E+001      -1.7879816750E+007       0.0000000000E+000       1.0000000014E+000       4.5369813468E+001       8.3590530229E+002       6.6666666667E-002       1.0000000000E-003       1.0000000000E-003       0.0000000000E+000       1.0000000015E+000       0.0000000000E+000       2.7777777806E-003       2.4398877001E-001
       0.0000000000E+000       7.8620968872E-001      -2.6011270018E-004       6.8351202855E+001      -1.7879816750E+007       0.0000000000E+000       1.0000000014E+000       4.5941170623E+001       8.7565914353E+002       6.6666666667E-002       1.0000000000E-003       1.0000000000E-003       0.0000000000E+000       1.0000000015E+000       0.0000000000E+000       2.7777777806E-003       2.3836958457E-001
       0.0000000000E+000       7.9611995484E-001      -2.5734686933E-004       6.7860322313E+001      -1.7879816750E+007       0.0000000000E+000       1.0000000014E+000       4.6498629187E+001       9.1733765184E+002       6.6666666667E-002       1.0000000000E-003       1.0000000000E-003       0.0000000000E+000       1.0000000015E+000       0.0000000000E+000       2.7777777806E-003       2.3255209297E-001
       0.0000000000E+000       8.0568179598E-001      -2.5396940842E-004       6.7369724725E+001      -1.7879816750E+007       0.0000000000E+000       1.0000000014E+000       4.7043240085E+001       9.6108750701E+002       6.6666666667E-002       1.0000000000E-003       1.0000000000E-003       0.0000000000E+000       1.0000000015E+000       0.0000000000E+000       2.7777777806E-003       2.2654731339E-001
       0.0000000000E+000       8.1490194236E-001      -2.4999464647E-004       6.6879249101E+001      -1.7879816750E+007       0.0000000000E+000       1.0000000014E+000       4.7576123968E+001       1.0070701162E+003       6.6666666667E-002       1.0000000000E-003       1.0000000000E-003       0.0000000000E+000       1.0000000015E+000       0.0000000000E+000       2.7777777806E-003       2.2036670163E-001
       0.0000000000E+000       8.2378747516E-001      -2.4544096726E-004       6.6388687758E+001      -1.7879816750E+007       0.0000000000E+000       1.0000000014E+000       4.8098468902E+001       1.0554629181E+003       6.6666666667E-002       1.0000000000E-003       1.0000000000E-003       0.0000000000E+000       1.0000000015E+000       0.0000000000E+000       2.7777777806E-003       2.1402237132E-001
       0.0000000000E+000       8.3234577677E-001      -2.4033116487E-004       6.5897785700E+001      -1.7879816750E+007       0.0000000000E+000       1.0000000014E+000       4.8611526441E+001       1.1064607591E+003       6.6666666667E-002       1.0000000000E-003       1.0000000000E-003       0.0000000000E+000       1.0000000015E+000       0.0000000000E+000       2.7777777806E-003       2.0752727934E-001
       0.0000000000E+000       8.4058448357E-001      -2.3469108706E-004       6.5406240170E+001      -1.7879816750E+007       0.0000000000E+000       1.0000000014E+000       4.9116610050E+001       1.1602773490E+003       6.6666666667E-002       1.0000000000E-003       1.0000000000E-003       0.0000000000E+000       1.0000000015E+000       0.0000000000E+000       2.7777777806E-003       2.0089539941E-001
       0.0000000000E+000       8.4851144115E-001      -2.2854953017E-004       6.4913700224E+001      -1.7879816750E+007       0.0000000000E+000       1.0000000014E+000       4.9615089236E+001       1.2171468119E+003       6.6666666667E-002       1.0000000000E-003       1.0000000000E-003       0.0000000000E+000       1.0000000015E+000       0.0000000000E+000       2.7777777806E-003       1.9414181810E-001
       0.0000000000E+000       8.5613466229E-001      -2.2193879537E-004       6.4419766356E+001      -1.7879816750E+007       0.0000000000E+000       1.0000000014E+000       5.0108384108E+001       1.2773253640E+003       6.6666666667E-002       1.0000000000E-003       1.0000000000E-003       0.0000000000E+000       1.0000000015E+000       0.0000000000E+000       2.7777777806E-003       1.8728278631E-001
       0.0000000000E+000       8.6346228758E-001      -2.1489365283E-004       6.3923990052E+001      -1.7879816750E+007       0.0000000000E+000       1.0000000014E+000       5.0597959625E+001       1.3410930781E+003       6.6666666667E-002       1.0000000000E-003       1.0000000000E-003       0.0000000000E+000       1.0000000015E+000       0.0000000000E+000       2.7777777806E-003       1.8033572374E-001
       0.0000000000E+000       8.7050254873E-001      -2.0744938994E-004       6.3425873222E+001      -1.7879816750E+007       0.0000000000E+000       1.0000000014E+000       5.1085319562E+001       1.4087558370E+003       6.6666666667E-002       1.0000000000E-003       1.0000000000E-003       0.0000000000E+000       1.0000000015E+000       0.0000000000E+000       2.7777777806E-003       1.7331916182E-001
       0.0000000000E+000       8.7726373460E-001      -1.9964362880E-004       6.2924867389E+001      -1.7879816750E+007       0.0000000000E+000       1.0000000014E+000       5.1571998399E+001       1.4806474941E+003       6.6666666667E-002       1.0000000000E-003       1.0000000000E-003       0.0000000000E+000       1.0000000015E+000       0.0000000000E+000       2.7777777806E-003       1.6625261952E-001
       0.0000000000E+000       8.8375415988E-001      -1.9151384130E-004       6.2420372526E+001      -1.7879816750E+007       0.0000000000E+000       1.0000000014E+000       5.2059552477E+001       1.5571322965E+003       6.6666666667E-002       1.0000000000E-003       1.0000000000E-003       0.0000000000E+000       1.0000000015E+000       0.0000000000E+000       2.7777777806E-003       1.5915642648E-001
       0.0000000000E+000       8.8998213639E-001      -1.8309695790E-004       6.1911735417E+001      -1.7879816750E+007       0.0000000000E+000       1.0000000014E+000       5.2549549910E+001       1.6386076458E+003       6.6666666667E-002       1.0000000000E-003       1.0000000000E-003       0.0000000000E+000       1.0000000015E+000       0.0000000000E+000       2.7777777806E-003       1.5205149780E-001
       0.0000000000E+000       8.9595594686E-001      -1.7443088239E-004       6.1398247390E+001      -1.7879816750E+007       0.0000000000E+000       1.0000000014E+000       5.3043558951E+001       1.7255072903E+003       6.6666666667E-002       1.0000000000E-003       1.0000000000E-003       0.0000000000E+000       1.0000000015E+000       0.0000000000E+000       2.7777777806E-003       1.4495906899E-001
       0.0000000000E+000       9.0168382125E-001      -1.6555205961E-004       6.0879141244E+001      -1.7879816750E+007       0.0000000000E+000       1.0000000014E+000       5.3543134587E+001       1.8183050715E+003       6.6666666667E-002       1.0000000000E-003       1.0000000000E-003       0.0000000000E+000       1.0000000015E+000       0.0000000000E+000       2.7777777806E-003       1.3790040261E-001
       0.0000000000E+000       9.0717391533E-001      -1.5649550225E-004       6.0353587171E+001      -1.7879816750E+007       0.0000000000E+000       1.0000000014E+000       5.4049803062E+001       1.9175193787E+003       6.6666666667E-002       1.0000000000E-003       1.0000000000E-003       0.0000000000E+000       1.0000000015E+000       0.0000000000E+000       2.7777777806E-003       1.3089647934E-001
       0.0000000000E+000       9.1243429153E-001      -1.4729585936E-004       5.9820687424E+001      -1.7879816750E+007       0.0000000000E+000       1.0000000014E+000       5.4565043984E+001       2.0237185095E+003       6.6666666667E-002       1.0000000000E-003       1.0000000000E-003       0.0000000000E+000       1.0000000015E+000       0.0000000000E+000       2.7777777806E-003       1.2396768703E-001
       0.0000000000E+000       9.1747290199E-001      -1.3798335479E-004       5.9279469452E+001      -1.7879816751E+007       0.0000000000E+000       1.0000000014E+000       5.5090269597E+001       2.1375271868E+003       6.6666666667E-002       1.0000000000E-003       1.0000000000E-003       0.0000000000E+000       1.0000000015E+000       0.0000000000E+000       2.7777777806E-003       1.1713352100E-001
       0.0000000000E+000       9.2229757354E-001      -1.2858863616E-004       5.8728877145E+001      -1.7879816751E+007       0.0000000000E+000       1.0000000014E+000       5.5626800649E+001       2.2596345469E+003       6.6666666667E-002       1.0000000000E-003       1.0000000000E-003       0.0000000000E+000       1.0000000015E+000       0.0000000000E+000       2.7777777806E-003       1.1041230832E-001
       0.0000000000E+000       9.2691599462E-001      -1.1913946280E-004       5.8167759712E+001      -1.7879816751E+007       0.0000000000E+000       1.0000000014E+000       5.6175838062E+001       2.3908039965E+003       6.6666666667E-002       1.0000000000E-003       1.0000000000E-003       0.0000000000E+000       1.0000000015E+000       0.0000000000E+000       2.7777777806E-003       1.0382096689E-001
       0.0000000000E+000       9.3133570398E-001      -1.0966015982E-004       5.7594857716E+001      -1.7879816751E+007       0.0000000000E+000       1.0000000014E+000       5.6738429426E+001       2.5318854449E+003       6.6666666667E-002       1.0000000000E-003       1.0000000000E-003       0.0000000000E+000       1.0000000015E+000       0.0000000000E+000       2.7777777806E-003       9.7374808284E-002
       0.0000000000E+000       9.3556408104E-001      -1.0017356074E-004       5.7008785512E+001      -1.7879816751E+007       0.0000000000E+000       1.0000000014E+000       5.7315428792E+001       2.6838305478E+003       6.6666666667E-002       1.0000000000E-003       1.0000000000E-003       0.0000000000E+000       1.0000000015E+000       0.0000000000E+000       2.7777777806E-003       9.1087391054E-002
       0.0000000000E+000       9.3960833779E-001      -9.0701145320E-005       5.6408009315E+001      -1.7879816751E+007       0.0000000000E+000       1.0000000014E+000       5.7907447768E+001       2.8477117771E+003       6.6666666667E-002       1.0000000000E-003       1.0000000000E-003       0.0000000000E+000       1.0000000015E+000       0.0000000000E+000       2.7777777806E-003       8.4970428110E-002
       0.0000000000E+000       9.4347551212E-001      -8.1263562571E-005       5.5790819693E+001      -1.7879816751E+007       0.0000000000E+000       1.0000000014E+000       5.8514794907E+001       3.0247463535E+003       6.6666666667E-002       1.0000000000E-003       1.0000000000E-003       0.0000000000E+000       1.0000000015E+000       0.0000000000E+000       2.7777777806E-003       7.9033749587E-002