 VARIABLES ="X","Y","U","W","P","C","T","k","eps", "v2","omega","nuSA","yplus","RHO","Pe","mu","mut"
 ZONE I=            98  J=            40  F=POINT 
       0.0000000000E+000      -1.0100607860E-003      -0.0000000000E+000      -9.7413591752E+000       0.0000000000E+000       0.0000000000E+000       9.9999999878E-001      -4.9341468618E+000       2.5619925213E+004       0.0000000000E+000       0.0000000000E+000       0.0000000000E+000       0.0000000000E+000       1.0000000003E+000       0.0000000000E+000       2.7777777791E-003       1.4886687463E-005
       0.0000000000E+000       1.0100607860E-003       0.0000000000E+000       9.7413591752E+000       0.0000000000E+000       0.0000000000E+000       9.9999999878E-001       4.9341468618E+000       2.8117213857E+004       6.6666666667E-002       1.0000000000E-003       1.0000000000E-003       0.0000000000E+000       1.0000000003E+000       0.0000000000E+000       2.7777777791E-003       1.4886687463E-005
       0.0000000000E+000       3.1294375279E-003       0.0000000000E+000       2.7850786085E+001       0.0000000000E+000       0.0000000000E+000       9.9999999878E-001       5.1769589578E+001       4.6465626852E+004       6.6666666667E-002       1.0000000000E-003       1.0000000000E-003       0.0000000000E+000       1.0000000003E+000       0.0000000000E+000       2.7777777791E-003       7.3120599582E-004
       0.0000000000E+000       5.4568238521E-003       0.0000000000E+000       4.0624631126E+001       0.0000000000E+000       0.0000000000E+000       9.9999999878E-001       1.0044493557E+002       4.9073411521E+004       6.6666666667E-002       1.0000000000E-003       1.0000000000E-003       0.0000000000E+000       1.0000000003E+000       0.0000000000E+000       2.7777777791E-003       3.5144096940E-003
       0.0000000000E+000       8.0120745591E-003       0.0000000000E+000       4.8686773080E+001       0.0000000000E+000       0.0000000000E+000       9.9999999878E-001       1.1892360923E+002       4.0248161484E+004       6.6666666667E-002       1.0000000000E-003       1.0000000000E-003       0.0000000000E+000       1.0000000003E+000       0.0000000000E+000       2.7777777791E-003       7.9574170456E-003
       0.0000000000E+000       1.0816823264E-002       0.0000000000E+000       5.4240415814E+001       0.0000000000E+000       0.0000000000E+000       9.9999999878E-001       1.2315137646E+002       3.1858057260E+004       6.6666666667E-002       1.0000000000E-003       1.0000000000E-003       0.0000000000E+000       1.0000000003E+000       0.0000000000E+000       2.7777777791E-003       1.3576717073E-002
       0.0000000000E+000       1.3894617523E-002       0.0000000000E+000       5.8427339132E+001       0.0000000000E+000       0.0000000000E+000       9.9999999878E-001       1.2220169925E+002       2.5480162921E+004       6.6666666667E-002       1.0000000000E-003       1.0000000000E-003       0.0000000000E+000       1.0000000003E+000       0.0000000000E+000       2.7777777791E-003       2.0226803715E-002
       0.0000000000E+000       1.7271059037E-002       0.0000000000E+000       6.1787958072E+001       0.0000000000E+000       0.0000000000E+000       9.9999999878E-001       1.1941747531E+002       2.0713724132E+004       6.6666666667E-002       1.0000000000E-003       1.0000000000E-003       0.0000000000E+000       1.0000000003E+000       0.0000000000E+000       2.7777777791E-003       2.7900319640E-002
       0.0000000000E+000       2.0973947879E-002       0.0000000000E+000       6.4603169508E+001       0.0000000000E+000       0.0000000000E+000       9.9999999878E-001       1.1607783610E+002       1.7086551614E+004       6.6666666667E-002       1.0000000000E-003       1.0000000000E-003       0.0000000000E+000       1.0000000003E+000       0.0000000000E+000       2.7777777791E-003       3.6655698927E-002
       0.0000000000E+000       2.5033429320E-002       0.0000000000E+000       6.7033498014E+001       0.0000000000E+000       0.0000000000E+000       9.9999999878E-001       1.1270721938E+002       1.4265870581E+004       6.6666666667E-002       1.0000000000E-003       1.0000000000E-003       0.0000000000E+000       1.0000000003E+000       0.0000000000E+000       2.7777777791E-003       4.6584584556E-002
       0.0000000000E+000       2.9482141392E-002       0.0000000000E+000       6.9178224890E+001       0.0000000000E+000       0.0000000000E+000       9.9999999878E-001       1.0952950898E+002       1.2031446077E+004       6.6666666667E-002       1.0000000000E-003       1.0000000000E-003       0.0000000000E+000       1.0000000003E+000       0.0000000000E+000       2.7777777791E-003       5.7792273665E-002
       0.0000000000E+000       3.4355360827E-002       0.0000000000E+000       7.1102932994E+001       0.0000000000E+000       0.0000000000E+000       9.9999999878E-001       1.0663841949E+002       1.0235863230E+004       6.6666666667E-002       1.0000000000E-003       1.0000000000E-003       0.0000000000E+000       1.0000000003E+000       0.0000000000E+000       2.7777777791E-003       7.0381893254E-002
       0.0000000000E+000       3.9691144380E-002       0.0000000000E+000       7.2853476210E+001       0.0000000000E+000       0.0000000000E+000       9.9999999878E-001       1.0406678213E+002       8.7774156992E+003       6.6666666667E-002       1.0000000000E-003       1.0000000000E-003       0.0000000000E+000       1.0000000003E+000       0.0000000000E+000       2.7777777791E-003       8.4438511493E-002
       0.0000000000E+000       4.5530461881E-002       0.0000000000E+000       7.4463579392E+001       0.0000000000E+000       0.0000000000E+000       9.9999999878E-001       1.0181676050E+002       7.5834527187E+003       6.6666666667E-002       1.0000000000E-003       1.0000000000E-003       0.0000000000E+000       1.0000000003E+000       0.0000000000E+000       2.7777777791E-003       1.0001254943E-001
       0.0000000000E+000       5.1917316536E-002       0.0000000000E+000       7.5959202233E+001       0.0000000000E+000       0.0000000000E+000       9.9999999878E-001       9.9873909396E+001       6.6002768047E+003       6.6666666667E-002       1.0000000000E-003       1.0000000000E-003       0.0000000000E+000       1.0000000003E+000       0.0000000000E+000       2.7777777791E-003       1.1710390946E-001
       0.0000000000E+000       5.8898847137E-002       0.0000000000E+000       7.7361141569E+001       0.0000000000E+000       0.0000000000E+000       9.9999999878E-001       9.8214190772E+001       5.7869530287E+003       6.6666666667E-002       1.0000000000E-003       1.0000000000E-003       0.0000000000E+000       1.0000000003E+000       0.0000000000E+000       2.7777777791E-003       1.3564941906E-001
       0.0000000000E+000       6.6525405813E-002       0.0000000000E+000       7.8686619936E+001       0.0000000000E+000       0.0000000000E+000       9.9999999878E-001       9.6807772396E+001       5.1114534121E+003       6.6666666667E-002       1.0000000000E-003       1.0000000000E-003       0.0000000000E+000       1.0000000003E+000       0.0000000000E+000       2.7777777791E-003       1.5551647954E-001
       0.0000000000E+000       7.4850603903E-002       0.0000000000E+000       7.9950266992E+001       0.0000000000E+000       0.0000000000E+000       9.9999999878E-001       9.5621267403E+001       4.5482063396E+003       6.6666666667E-002       1.0000000000E-003       1.0000000000E-003       0.0000000000E+000       1.0000000003E+000       0.0000000000E+000       2.7777777791E-003       1.7650514209E-001
       0.0000000000E+000       8.3931317363E-002       0.0000000000E+000       8.1164728569E+001       0.0000000000E+000       0.0000000000E+000       9.9999999878E-001       9.4619150231E+001       4.0764965357E+003       6.6666666667E-002       1.0000000000E-003       1.0000000000E-003       0.0000000000E+000       1.0000000003E+000       0.0000000000E+000       2.7777777791E-003       1.9835930587E-001
       0.0000000000E+000       9.3827641929E-002       0.0000000000E+000       8.2341044932E+001       0.0000000000E+000       0.0000000000E+000       9.9999999878E-001       9.3764691520E+001       3.6793828584E+003       6.6666666667E-002       1.0000000000E-003       1.0000000000E-003       0.0000000000E+000       1.0000000003E+000       0.0000000000E+000       2.7777777791E-003       2.2078572779E-001
       0.0000000000E+000       1.0460278706E-001       0.0000000000E+000       8.3488885845E+001       0.0000000000E+000       0.0000000000E+000       9.9999999878E-001       9.3020593889E+001       3.3429349661E+003       6.6666666667E-002       1.0000000000E-003       1.0000000000E-003       0.0000000000E+000       1.0000000003E+000       0.0000000000E+000       2.7777777791E-003       2.4347765068E-001
       0.0000000000E+000       1.1632289650E-001       0.0000000000E+000       8.4616697372E+001       0.0000000000E+000       0.0000000000E+000       9.9999999878E-001       9.2349447058E+001       3.0556712014E+003       6.6666666667E-002       1.0000000000E-003       1.0000000000E-003       0.0000000000E+000       1.0000000003E+000       0.0000000000E+000       2.7777777791E-003       2.6613870815E-001
       0.0000000000E+000       1.2905678245E-001       0.0000000000E+000       8.5731795274E+001       0.0000000000E+000       0.0000000000E+000       9.9999999878E-001       9.1714091709E+001       2.8081286853E+003       6.6666666667E-002       1.0000000000E-003       1.0000000000E-003       0.0000000000E+000       1.0000000003E+000       0.0000000000E+000       2.7777777791E-003       2.8850272208E-001
       0.0000000000E+000       1.4287555919E-001       0.0000000000E+000       8.6840427590E+001       0.0000000000E+000       0.0000000000E+000       9.9999999878E-001       9.1077958941E+001       2.5925247971E+003       6.6666666667E-002       1.0000000000E-003       1.0000000000E-003       0.0000000000E+000       1.0000000003E+000       0.0000000000E+000       2.7777777791E-003       3.1034606806E-001
       0.0000000000E+000       1.5785216215E-001       0.0000000000E+000       8.7947821551E+001       0.0000000000E+000       0.0000000000E+000       9.9999999878E-001       9.0405426943E+001       2.4024848732E+003       6.6666666667E-002       1.0000000000E-003       1.0000000000E-003       0.0000000000E+000       1.0000000003E+000       0.0000000000E+000       2.7777777791E-003       3.3149107668E-001
       0.0000000000E+000       1.7406073782E-001       0.0000000000E+000       8.9058225117E+001       0.0000000000E+000       0.0000000000E+000       9.9999999878E-001       8.9662208808E+001       2.2328194220E+003       6.6666666667E-002       1.0000000000E-003       1.0000000000E-003       0.0000000000E+000       1.0000000003E+000       0.0000000000E+000       2.7777777791E-003       3.5180090640E-001
       0.0000000000E+000       1.9157589134E-001       0.0000000000E+000       9.0174949824E+001       0.0000000000E+000       0.0000000000E+000       9.9999999878E-001       8.8815759846E+001       2.0793388317E+003       6.6666666667E-002       1.0000000000E-003       1.0000000000E-003       0.0000000000E+000       1.0000000003E+000       0.0000000000E+000       2.7777777791E-003       3.7116793079E-001
       0.0000000000E+000       2.1047177964E-001       0.0000000000E+000       9.1300418357E+001       0.0000000000E+000       0.0000000000E+000       9.9999999878E-001       8.7835674888E+001       1.9386965067E+003       6.6666666667E-002       1.0000000000E-003       1.0000000000E-003       0.0000000000E+000       1.0000000003E+000       0.0000000000E+000       2.7777777791E-003       3.8949858487E-001
       0.0000000000E+000       2.3082104100E-001       0.0000000000E+000       9.2436217279E+001       0.0000000000E+000       0.0000000000E+000       9.9999999878E-001       8.6694039856E+001       1.8082536540E+003       6.6666666667E-002       1.0000000000E-003       1.0000000000E-003       0.0000000000E+000       1.0000000003E+000       0.0000000000E+000       2.7777777791E-003       4.0669772719E-001
       0.0000000000E+000       2.5269355587E-001       0.0000000000E+000       9.3583152680E+001       0.0000000000E+000       0.0000000000E+000       9.9999999878E-001       8.5365708296E+001       1.6859609672E+003       6.6666666667E-002       1.0000000000E-003       1.0000000000E-003       0.0000000000E+000       1.0000000003E+000       0.0000000000E+000       2.7777777791E-003       4.2265504118E-001
       0.0000000000E+000       2.7615503885E-001       0.0000000000E+000       9.4741304712E+001       0.0000000000E+000       0.0000000000E+000       9.9999999878E-001       8.3828490147E+001       1.5702542458E+003       6.6666666667E-002       1.0000000000E-003       1.0000000000E-003       0.0000000000E+000       1.0000000003E+000       0.0000000000E+000       2.7777777791E-003       4.3723510391E-001
       0.0000000000E+000       3.0126546880E-001       0.0000000000E+000       9.5910076132E+001       0.0000000000E+000       0.0000000000E+000       9.9999999878E-001       8.2063261827E+001       1.4599624209E+003       6.6666666667E-002       1.0000000000E-003       1.0000000000E-003       0.0000000000E+000       1.0000000003E+000       0.0000000000E+000       2.7777777791E-003       4.5027180527E-001
       0.0000000000E+000       3.2807737251E-001       0.0000000000E+000       9.7088230088E+001       0.0000000000E+000       0.0000000000E+000       9.9999999878E-001       8.0054028290E+001       1.3542274393E+003       6.6666666667E-002       1.0000000000E-003       1.0000000000E-003       0.0000000000E+000       1.0000000003E+000       0.0000000000E+000       2.7777777791E-003       4.6156705503E-001
       0.0000000000E+000       3.5663398698E-001       0.0000000000E+000       9.8273913009E+001       0.0000000000E+000       0.0000000000E+000       9.9999999878E-001       7.7787985132E+001       1.2524359651E+003       6.6666666667E-002       1.0000000000E-003       1.0000000000E-003       0.0000000000E+000       1.0000000003E+000       0.0000000000E+000       2.7777777791E-003       4.7089330529E-001
       0.0000000000E+000       3.8696733669E-001       0.0000000000E+000       9.9464659032E+001       0.0000000000E+000       0.0000000000E+000       9.9999999878E-001       7.5255640891E+001       1.1541629881E+003       6.6666666667E-002       1.0000000000E-003       1.0000000000E-003       0.0000000000E+000       1.0000000003E+000       0.0000000000E+000       2.7777777791E-003       4.7799935116E-001
       0.0000000000E+000       4.1909627393E-001       0.0000000000E+000       1.0065737227E+002       0.0000000000E+000       0.0000000000E+000       9.9999999878E-001       7.2451068361E+001       1.0591273347E+003       6.6666666667E-002       1.0000000000E-003       1.0000000000E-003       0.0000000000E+000       1.0000000003E+000       0.0000000000E+000       2.7777777791E-003       4.8261908075E-001
       0.0000000000E+000       4.5302454235E-001       0.0000000000E+000       1.0184828193E+002       0.0000000000E+000       0.0000000000E+000       9.9999999878E-001       6.9372363620E+001       9.6715893132E+002       6.6666666667E-002       1.0000000000E-003       1.0000000000E-003       0.0000000000E+000       1.0000000003E+000       0.0000000000E+000       2.7777777791E-003       4.8448322152E-001
       0.0000000000E+000       4.8873893491E-001       0.0000000000E+000       1.0303286213E+002       0.0000000000E+000       0.0000000000E+000       9.9999999878E-001       6.6022409182E+001       8.7817762689E+002       6.6666666667E-002       1.0000000000E-003       1.0000000000E-003       0.0000000000E+000       1.0000000003E+000       0.0000000000E+000       2.7777777791E-003       4.8333460207E-001
       0.0000000000E+000       5.2620762723E-001       0.0000000000E+000       1.0420570342E+002       0.0000000000E+000       0.0000000000E+000       9.9999999878E-001       6.2410072201E+001       7.9218357544E+002       6.6666666667E-002       1.0000000000E-003       1.0000000000E-003       0.0000000000E+000       1.0000000003E+000       0.0000000000E+000       2.7777777791E-003       4.7894801395E-001
       0.0000000000E+000       5.6537877348E-001       0.0000000000E+000       1.0536031420E+002       0.0000000000E+000       0.0000000000E+000       9.9999999878E-001       5.8552031673E+001       7.0925973270E+002       6.6666666667E-002       1.0000000000E-003       1.0000000000E-003       0.0000000000E+000       1.0000000003E+000       0.0000000000E+000       2.7777777791E-003       4.7115649554E-001
       0.0000000000E+000       6.0617945461E-001       0.0000000000E+000       1.0648881869E+002       0.0000000000E+000       0.0000000000E+000       9.9999999878E-001       5.4475534826E+001       6.2958804001E+002       6.6666666667E-002       1.0000000000E-003       1.0000000000E-003       0.0000000000E+000       1.0000000003E+000       0.0000000000E+000       2.7777777791E-003       4.5988691092E-001
       0.0000000000E+000       6.4851506570E-001       0.0000000000E+000       1.0758150099E+002       0.0000000000E+000       0.0000000000E+000       9.9999999878E-001       5.0222545771E+001       5.5348240994E+002       6.6666666667E-002       1.0000000000E-003       1.0000000000E-003       0.0000000000E+000       1.0000000003E+000       0.0000000000E+000       2.7777777791E-003       4.4520916644E-001
       0.0000000000E+000       6.9226922041E-001       0.0000000000E+000       1.0862612660E+002       0.0000000000E+000       0.0000000000E+000       9.9999999878E-001       4.5855958307E+001       4.8144343273E+002       6.6666666667E-002       1.0000000000E-003       1.0000000000E-003       0.0000000000E+000       1.0000000003E+000       0.0000000000E+000       2.7777777791E-003       4.2740506832E-001
       0.0000000000E+000       7.3730423491E-001       0.0000000000E+000       1.0960696700E+002       0.0000000000E+000       0.0000000000E+000       9.9999999878E-001       4.1468686635E+001       4.1424045888E+002       6.6666666667E-002       1.0000000000E-003       1.0000000000E-003       0.0000000000E+000       1.0000000003E+000       0.0000000000E+000       2.7777777791E-003       4.0706314638E-001
       0.0000000000E+000       7.8346223196E-001       0.0000000000E+000       1.1050350984E+002       0.0000000000E+000       0.0000000000E+000       9.9999999878E-001       3.7196090222E+001       3.5302201206E+002       6.6666666667E-002       1.0000000000E-003       1.0000000000E-003       0.0000000000E+000       1.0000000003E+000       0.0000000000E+000       2.7777777791E-003       3.8519941270E-001
       0.0000000000E+000       8.3056687844E-001       0.0000000000E+000       1.1128908435E+002       0.0000000000E+000       0.0000000000E+000       9.9999999878E-001       3.3230144197E+001       2.9943467114E+002       6.6666666667E-002       1.0000000000E-003       1.0000000000E-003       0.0000000000E+000       1.0000000003E+000       0.0000000000E+000       2.7777777791E-003       3.6337746476E-001
       0.0000000000E+000       8.7842573817E-001       0.0000000000E+000       1.1193028243E+002       0.0000000000E+000       0.0000000000E+000       9.9999999878E-001       2.9827897008E+001       2.5567767195E+002       6.6666666667E-002       1.0000000000E-003       1.0000000000E-003       0.0000000000E+000       1.0000000003E+000       0.0000000000E+000       2.7777777791E-003       3.4373540635E-001
       0.0000000000E+000       9.2683318857E-001       0.0000000000E+000       1.1238909810E+002       0.0000000000E+000       0.0000000000E+000       9.9999999878E-001       2.7296667968E+001       2.2434310707E+002       6.6666666667E-002       1.0000000000E-003       1.0000000000E-003       0.0000000000E+000       1.0000000003E+000       0.0000000000E+000       2.7777777791E-003       3.2874549508E-001
       0.0000000000E+000       9.7557381694E-001       0.0000000000E+000       1.1262992149E+002       0.0000000000E+000       0.0000000000E+000       9.9999999878E-001       2.5934751704E+001       2.0789319569E+002       6.6666666667E-002       1.0000000000E-003       1.0000000000E-003       0.0000000000E+000       1.0000000003E+000       0.0000000000E+000       2.7777777791E-003       3.2061179577E-001
       0.0000000000E+000       1.0244261831E+000       0.0000000000E+000       1.1263050932E+002       0.0000000000E+000       0.0000000000E+000       9.9999999878E-001       2.5932596766E+001       2.0786824968E+002       6.6666666667E-002       1.0000000000E-003       1.0000000000E-003       0.0000000000E+000       1.0000000003E+000       0.0000000000E+000       2.7777777791E-003       3.2059770343E-001
       0.0000000000E+000       1.0731668114E+000       0.0000000000E+000       1.1239083142E+002       0.0000000000E+000       0.0000000000E+000       9.9999999878E-001       2.7290401727E+001       2.2426943980E+002       6.6666666667E-002       1.0000000000E-003       1.0000000000E-003       0.0000000000E+000       1.0000000003E+000       0.0000000000E+000       2.7777777791E-003       3.2870457002E-001
       0.0000000000E+000       1.1215742618E+000       0.0000000000E+000       1.1193308349E+002       0.0000000000E+000       0.0000000000E+000       9.9999999878E-001       2.9818016266E+001       2.5555819962E+002       6.6666666667E-002       1.0000000000E-003       1.0000000000E-003       0.0000000000E+000       1.0000000003E+000       0.0000000000E+000       2.7777777791E-003       3.4367145505E-001
       0.0000000000E+000       1.1694331216E+000       0.0000000000E+000       1.1129285594E+002       0.0000000000E+000       0.0000000000E+000       9.9999999878E-001       3.3217235547E+001       2.9927270887E+002       6.6666666667E-002       1.0000000000E-003       1.0000000000E-003       0.0000000000E+000       1.0000000003E+000       0.0000000000E+000       2.7777777791E-003       3.6329564319E-001
       0.0000000000E+000       1.2165377680E+000       0.0000000000E+000       1.1050815950E+002       0.0000000000E+000       0.0000000000E+000       9.9999999878E-001       3.7180665996E+001       3.5282009938E+002       6.6666666667E-002       1.0000000000E-003       1.0000000000E-003       0.0000000000E+000       1.0000000003E+000       0.0000000000E+000       2.7777777791E-003       3.8510471494E-001
       0.0000000000E+000       1.2626957651E+000       0.0000000000E+000       1.0961241820E+002       0.0000000000E+000       0.0000000000E+000       9.9999999878E-001       4.1451125901E+001       4.1399987904E+002       6.6666666667E-002       1.0000000000E-003       1.0000000000E-003       0.0000000000E+000       1.0000000003E+000       0.0000000000E+000       2.7777777791E-003       4.0695954324E-001
       0.0000000000E+000       1.3077307796E+000       0.0000000000E+000       1.0863231995E+002       0.0000000000E+000       0.0000000000E+000       9.9999999878E-001       4.5836518908E+001       4.8116428316E+002       6.6666666667E-002       1.0000000000E-003       1.0000000000E-003       0.0000000000E+000       1.0000000003E+000       0.0000000000E+000       2.7777777791E-003       4.2729541341E-001
       0.0000000000E+000       1.3514849343E+000       0.0000000000E+000       1.0758839113E+002       0.0000000000E+000       0.0000000000E+000       9.9999999878E-001       5.0201399335E+001       5.5316388392E+002       6.6666666667E-002       1.0000000000E-003       1.0000000000E-003       0.0000000000E+000       1.0000000003E+000       0.0000000000E+000       2.7777777791E-003       4.4509544475E-001
       0.0000000000E+000       1.3938205454E+000       0.0000000000E+000       1.0649637055E+002       0.0000000000E+000       0.0000000000E+000       9.9999999878E-001       5.4452799595E+001       6.2922871136E+002       6.6666666667E-002       1.0000000000E-003       1.0000000000E-003       0.0000000000E+000       1.0000000003E+000       0.0000000000E+000       2.7777777791E-003       4.5977052452E-001
       0.0000000000E+000       1.4346212265E+000       0.0000000000E+000       1.0536849983E+002       0.0000000000E+000       0.0000000000E+000       9.9999999878E-001       5.8527796299E+001       7.0885777459E+002       6.6666666667E-002       1.0000000000E-003       1.0000000000E-003       0.0000000000E+000       1.0000000003E+000       0.0000000000E+000       2.7777777791E-003       4.7103848199E-001
       0.0000000000E+000       1.4737923728E+000       0.0000000000E+000       1.0421449966E+002       0.0000000000E+000       0.0000000000E+000       9.9999999878E-001       6.2384411057E+001       7.9173690885E+002       6.6666666667E-002       1.0000000000E-003       1.0000000000E-003       0.0000000000E+000       1.0000000003E+000       0.0000000000E+000       2.7777777791E-003       4.7882918956E-001
       0.0000000000E+000       1.5112610651E+000       0.0000000000E+000       1.0304224896E+002       0.0000000000E+000       0.0000000000E+000       9.9999999878E-001       6.5995391473E+001       8.7768401111E+002       6.6666666667E-002       1.0000000000E-003       1.0000000000E-003       0.0000000000E+000       1.0000000003E+000       0.0000000000E+000       2.7777777791E-003       4.8321564933E-001
       0.0000000000E+000       1.5469754577E+000       0.0000000000E+000       1.0185824139E+002       0.0000000000E+000       0.0000000000E+000       9.9999999878E-001       6.9344058312E+001       9.6661600777E+002       6.6666666667E-002       1.0000000000E-003       1.0000000000E-003       0.0000000000E+000       1.0000000003E+000       0.0000000000E+000       2.7777777791E-003       4.8436474071E-001
       0.0000000000E+000       1.5809037261E+000       0.0000000000E+000       1.0066788774E+002       0.0000000000E+000       0.0000000000E+000       9.9999999878E-001       7.2421546366E+001       1.0585326296E+003       6.6666666667E-002       1.0000000000E-003       1.0000000000E-003       0.0000000000E+000       1.0000000003E+000       0.0000000000E+000       2.7777777791E-003       4.8250162065E-001
       0.0000000000E+000       1.6130326633E+000       0.0000000000E+000       9.9475714767E+001       0.0000000000E+000       0.0000000000E+000       9.9999999878E-001       7.5224975454E+001       1.1535138738E+003       6.6666666667E-002       1.0000000000E-003       1.0000000000E-003       0.0000000000E+000       1.0000000003E+000       0.0000000000E+000       2.7777777791E-003       4.7788342835E-001
       0.0000000000E+000       1.6433660130E+000       0.0000000000E+000       9.8285493944E+001       0.0000000000E+000       0.0000000000E+000       9.9999999878E-001       7.7756250997E+001       1.2517295753E+003       6.6666666667E-002       1.0000000000E-003       1.0000000000E-003       0.0000000000E+000       1.0000000003E+000       0.0000000000E+000       2.7777777791E-003       4.7077941821E-001
       0.0000000000E+000       1.6719226275E+000       0.0000000000E+000       9.7100321742E+001       0.0000000000E+000       0.0000000000E+000       9.9999999878E-001       8.0021300007E+001       1.3534605283E+003       6.6666666667E-002       1.0000000000E-003       1.0000000000E-003       0.0000000000E+000       1.0000000003E+000       0.0000000000E+000       2.7777777791E-003       4.6145569583E-001
       0.0000000000E+000       1.6987345312E+000       0.0000000000E+000       9.5922664660E+001       0.0000000000E+000       0.0000000000E+000       9.9999999878E-001       8.2029611448E+001       1.4591311571E+003       6.6666666667E-002       1.0000000000E-003       1.0000000000E-003       0.0000000000E+000       1.0000000003E+000       0.0000000000E+000       2.7777777791E-003       4.5016347098E-001
       0.0000000000E+000       1.7238449611E+000       0.0000000000E+000       9.4754377062E+001       0.0000000000E+000       0.0000000000E+000       9.9999999878E-001       8.3793984461E+001       1.5693539232E+003       6.6666666667E-002       1.0000000000E-003       1.0000000000E-003       0.0000000000E+000       1.0000000003E+000       0.0000000000E+000       2.7777777791E-003       4.3713030701E-001
       0.0000000000E+000       1.7473064441E+000       0.0000000000E+000       9.3596696837E+001       0.0000000000E+000       0.0000000000E+000       9.9999999878E-001       8.5330405755E+001       1.6849856225E+003       6.6666666667E-002       1.0000000000E-003       1.0000000000E-003       0.0000000000E+000       1.0000000003E+000       0.0000000000E+000       2.7777777791E-003       4.2255431840E-001
       0.0000000000E+000       1.7691789590E+000       0.0000000000E+000       9.2450222585E+001       0.0000000000E+000       0.0000000000E+000       9.9999999878E-001       8.6657987344E+001       1.8071955737E+003       6.6666666667E-002       1.0000000000E-003       1.0000000000E-003       0.0000000000E+000       1.0000000003E+000       0.0000000000E+000       2.7777777791E-003       4.0660164454E-001
       0.0000000000E+000       1.7895282204E+000       0.0000000000E+000       9.1314875902E+001       0.0000000000E+000       0.0000000000E+000       9.9999999878E-001       8.7798904474E+001       1.9375456110E+003       6.6666666667E-002       1.0000000000E-003       1.0000000000E-003       0.0000000000E+000       1.0000000003E+000       0.0000000000E+000       2.7777777791E-003       3.8940773605E-001
       0.0000000000E+000       1.8084241087E+000       0.0000000000E+000       9.0189852893E+001       0.0000000000E+000       0.0000000000E+000       9.9999999878E-001       8.8778285702E+001       2.0780819223E+003       6.6666666667E-002       1.0000000000E-003       1.0000000000E-003       0.0000000000E+000       1.0000000003E+000       0.0000000000E+000       2.7777777791E-003       3.7108292583E-001