 VARIABLES ="X","Y","U","W","P","C","T","k","eps", "v2","omega","nuSA","yplus","RHO","Pe","mu","mut"
 ZONE I=            98  J=            40  F=POINT 
       0.0000000000E+000      -9.2667936736E-003      -1.2936867897E-011       1.3153594713E+002      -2.6388215147E-004       0.0000000000E+000       1.0000000014E+000       1.4552235430E+001       1.8617633001E+002       6.6666666667E-002       1.0000000000E-003       1.0000000000E-003       0.0000000000E+000       1.0000000015E+000       0.0000000000E+000       2.7777777806E-003       1.1974723341E-001
       0.0000000000E+000       9.2667936736E-003      -1.2936867897E-011       1.3153594713E+002      -2.6388215147E-004       0.0000000000E+000       1.0000000014E+000       1.4552235430E+001       1.8617633001E+002       6.6666666667E-002       1.0000000000E-003       1.0000000000E-003       0.0000000000E+000       1.0000000015E+000       0.0000000000E+000       2.7777777806E-003       1.1974723341E-001
       0.0000000000E+000       2.7920250859E-002      -1.2381090764E-011       1.3142030125E+002      -2.6388217901E-004       0.0000000000E+000       1.0000000014E+000       1.5231291233E+001       1.9755259332E+002       6.6666666667E-002       1.0000000000E-003       1.0000000000E-003       0.0000000000E+000       1.0000000015E+000       0.0000000000E+000       2.7777777806E-003       1.2335285588E-001
       0.0000000000E+000       4.6803837788E-002      -1.1220058055E-011       1.3119482801E+002      -2.6388221292E-004       0.0000000000E+000       1.0000000014E+000       1.6531590592E+001       2.1955875967E+002       6.6666666667E-002       1.0000000000E-003       1.0000000000E-003       0.0000000000E+000       1.0000000015E+000       0.0000000000E+000       2.7777777806E-003       1.3022444166E-001
       0.0000000000E+000       6.5897829027E-002      -9.9763257814E-012       1.3087266494E+002      -2.6388224848E-004       0.0000000000E+000       1.0000000014E+000       1.8337860794E+001       2.5058106472E+002       6.6666666667E-002       1.0000000000E-003       1.0000000000E-003       0.0000000000E+000       1.0000000015E+000       0.0000000000E+000       2.7777777806E-003       1.3968998256E-001
       0.0000000000E+000       8.5181526490E-002      -8.6759955990E-012       1.3046935300E+002      -2.6388228466E-004       0.0000000000E+000       1.0000000014E+000       2.0518258075E+001       2.8871257408E+002       6.6666666667E-002       1.0000000000E-003       1.0000000000E-003       0.0000000000E+000       1.0000000015E+000       0.0000000000E+000       2.7777777806E-003       1.5096550163E-001
       0.0000000000E+000       1.0463334093E-001      -7.3349658590E-012       1.2999925038E+002      -2.6388232121E-004       0.0000000000E+000       1.0000000014E+000       2.2953269395E+001       3.3217986044E+002       6.6666666667E-002       1.0000000000E-003       1.0000000000E-003       0.0000000000E+000       1.0000000015E+000       0.0000000000E+000       2.7777777806E-003       1.6333250515E-001
       0.0000000000E+000       1.2423088209E-001      -5.9631608751E-012       1.2947407587E+002      -2.6388235805E-004       0.0000000000E+000       1.0000000014E+000       2.5546796910E+001       3.7951996244E+002       6.6666666667E-002       1.0000000000E-003       1.0000000000E-003       0.0000000000E+000       1.0000000015E+000       0.0000000000E+000       2.7777777806E-003       1.7621708553E-001
       0.0000000000E+000       1.4395105684E-001      -4.5675422973E-012       1.2890285016E+002      -2.6388239514E-004       0.0000000000E+000       1.0000000014E+000       2.8225973738E+001       4.2959205064E+002       6.6666666667E-002       1.0000000000E-003       1.0000000000E-003       0.0000000000E+000       1.0000000015E+000       0.0000000000E+000       2.7777777806E-003       1.8919439792E-001
       0.0000000000E+000       1.6377017442E-001      -3.1528698420E-012       1.2829238261E+002      -2.6388243246E-004       0.0000000000E+000       1.0000000014E+000       3.0936821222E+001       4.8152389177E+002       6.6666666667E-002       1.0000000000E-003       1.0000000000E-003       0.0000000000E+000       1.0000000015E+000       0.0000000000E+000       2.7777777806E-003       2.0196196510E-001
       0.0000000000E+000       1.8366405776E-001      -1.7222255647E-012       1.2764783313E+002      -2.6388246997E-004       0.0000000000E+000       1.0000000014E+000       3.3639515396E+001       5.3464877371E+002       6.6666666667E-002       1.0000000000E-003       1.0000000000E-003       0.0000000000E+000       1.0000000015E+000       0.0000000000E+000       2.7777777806E-003       2.1430839952E-001
       0.0000000000E+000       2.0360815989E-001      -2.7862394352E-013       1.2697318150E+002      -2.6388250764E-004       0.0000000000E+000       1.0000000014E+000       3.6304528679E+001       5.8845275666E+002       6.6666666667E-002       1.0000000000E-003       1.0000000000E-003       0.0000000000E+000       1.0000000015E+000       0.0000000000E+000       2.7777777806E-003       2.2608738001E-001
       0.0000000000E+000       2.2357768425E-001       1.1750090212E-012       1.2627157622E+002      -2.6388254543E-004       0.0000000000E+000       1.0000000014E+000       3.8909797144E+001       6.4253540081E+002       6.6666666667E-002       1.0000000000E-003       1.0000000000E-003       0.0000000000E+000       1.0000000015E+000       0.0000000000E+000       2.7777777806E-003       2.3719849937E-001
       0.0000000000E+000       2.4354770750E-001       2.6366096688E-012       1.2554558144E+002      -2.6388258331E-004       0.0000000000E+000       1.0000000014E+000       4.1438722108E+001       6.9658170554E+002       6.6666666667E-002       1.0000000000E-003       1.0000000000E-003       0.0000000000E+000       1.0000000015E+000       0.0000000000E+000       2.7777777806E-003       2.4757387746E-001
       0.0000000000E+000       2.6349330387E-001       4.1042346251E-012       1.2479734817E+002      -2.6388262122E-004       0.0000000000E+000       1.0000000014E+000       4.3878774509E+001       7.5034217190E+002       6.6666666667E-002       1.0000000000E-003       1.0000000000E-003       0.0000000000E+000       1.0000000015E+000       0.0000000000E+000       2.7777777806E-003       2.5716899268E-001
       0.0000000000E+000       2.8338966932E-001       5.5751665861E-012       1.2402873242E+002      -2.6388265909E-004       0.0000000000E+000       1.0000000014E+000       4.6220515303E+001       8.0361844979E+002       6.6666666667E-002       1.0000000000E-003       1.0000000000E-003       0.0000000000E+000       1.0000000015E+000       0.0000000000E+000       2.7777777806E-003       2.6595643139E-001
       0.0000000000E+000       3.0321224457E-001       7.0469845056E-012       1.2324137666E+002      -2.6388269689E-004       0.0000000000E+000       1.0000000014E+000       4.8456899034E+001       8.5625277377E+002       6.6666666667E-002       1.0000000000E-003       1.0000000000E-003       0.0000000000E+000       1.0000000015E+000       0.0000000000E+000       2.7777777806E-003       2.7392160904E-001
       0.0000000000E+000       3.2293683551E-001       8.5178739780E-012       1.2243676628E+002      -2.6388273453E-004       0.0000000000E+000       1.0000000014E+000       5.0582770488E+001       9.0811999051E+002       6.6666666667E-002       1.0000000000E-003       1.0000000000E-003       0.0000000000E+000       1.0000000015E+000       0.0000000000E+000       2.7777777806E-003       2.8105981082E-001
       0.0000000000E+000       3.4253972973E-001       9.9854385280E-012       1.2161626884E+002      -2.6388277199E-004       0.0000000000E+000       1.0000000014E+000       5.2594494231E+001       9.5912139748E+002       6.6666666667E-002       1.0000000000E-003       1.0000000000E-003       0.0000000000E+000       1.0000000015E+000       0.0000000000E+000       2.7777777806E-003       2.8737411268E-001
       0.0000000000E+000       3.6199780814E-001       1.1447457061E-011       1.2078116157E+002      -2.6388280921E-004       0.0000000000E+000       1.0000000014E+000       5.4489676765E+001       1.0091798818E+003       6.6666666667E-002       1.0000000000E-003       1.0000000000E-003       0.0000000000E+000       1.0000000015E+000       0.0000000000E+000       2.7777777806E-003       2.9287388869E-001
       0.0000000000E+000       3.8128865043E-001       1.2901900499E-011       1.1993265059E+002      -2.6388284613E-004       0.0000000000E+000       1.0000000014E+000       5.6266954029E+001       1.0582360184E+003       6.6666666667E-002       1.0000000000E-003       1.0000000000E-003       0.0000000000E+000       1.0000000015E+000       0.0000000000E+000       2.7777777806E-003       2.9757370833E-001
       0.0000000000E+000       4.0039063353E-001       1.4346061939E-011       1.1907188447E+002      -2.6388288271E-004       0.0000000000E+000       1.0000000014E+000       5.7925825542E+001       1.1062448922E+003       6.6666666667E-002       1.0000000000E-003       1.0000000000E-003       0.0000000000E+000       1.0000000015E+000       0.0000000000E+000       2.7777777806E-003       3.0149249241E-001
       0.0000000000E+000       4.1928302209E-001       1.5777313671E-011       1.1819996367E+002      -2.6388291890E-004       0.0000000000E+000       1.0000000014E+000       5.9466522141E+001       1.1531734762E+003       6.6666666667E-002       1.0000000000E-003       1.0000000000E-003       0.0000000000E+000       1.0000000015E+000       0.0000000000E+000       2.7777777806E-003       3.0465284028E-001
       0.0000000000E+000       4.3794605030E-001       1.7193545052E-011       1.1731794725E+002      -2.6388295465E-004       0.0000000000E+000       1.0000000014E+000       6.0889898131E+001       1.1989984420E+003       6.6666666667E-002       1.0000000000E-003       1.0000000000E-003       0.0000000000E+000       1.0000000015E+000       0.0000000000E+000       2.7777777806E-003       3.0708047006E-001
       0.0000000000E+000       4.5636099455E-001       1.8592738362E-011       1.1642685741E+002      -2.6388298989E-004       0.0000000000E+000       1.0000000014E+000       6.2197341342E+001       1.2437043091E+003       6.6666666667E-002       1.0000000000E-003       1.0000000000E-003       0.0000000000E+000       1.0000000015E+000       0.0000000000E+000       2.7777777806E-003       3.0880373382E-001
       0.0000000000E+000       4.7451023629E-001       1.9972151411E-011       1.1552768276E+002      -2.6388302457E-004       0.0000000000E+000       1.0000000014E+000       6.3390696482E+001       1.2872818634E+003       6.6666666667E-002       1.0000000000E-003       1.0000000000E-003       0.0000000000E+000       1.0000000015E+000       0.0000000000E+000       2.7777777806E-003       3.0985318297E-001
       0.0000000000E+000       4.9237731502E-001       2.1328641155E-011       1.1462138042E+002      -2.6388305863E-004       0.0000000000E+000       1.0000000014E+000       6.4472198539E+001       1.3297267911E+003       6.6666666667E-002       1.0000000000E-003       1.0000000000E-003       0.0000000000E+000       1.0000000015E+000       0.0000000000E+000       2.7777777806E-003       3.1026116821E-001
       0.0000000000E+000       5.0994697103E-001       2.2659247199E-011       1.1370887744E+002      -2.6388309201E-004       0.0000000000E+000       1.0000000014E+000       6.5444414001E+001       1.3710384904E+003       6.6666666667E-002       1.0000000000E-003       1.0000000000E-003       0.0000000000E+000       1.0000000015E+000       0.0000000000E+000       2.7777777806E-003       3.1006146435E-001
       0.0000000000E+000       5.2720517819E-001       2.3960425390E-011       1.1279107179E+002      -2.6388312467E-004       0.0000000000E+000       1.0000000014E+000       6.6310188376E+001       1.4112190348E+003       6.6666666667E-002       1.0000000000E-003       1.0000000000E-003       0.0000000000E+000       1.0000000015E+000       0.0000000000E+000       2.7777777806E-003       3.0928891456E-001
       0.0000000000E+000       5.4413916653E-001       2.5228609830E-011       1.1186883282E+002      -2.6388315657E-004       0.0000000000E+000       1.0000000014E+000       6.7072599049E+001       1.4502722698E+003       6.6666666667E-002       1.0000000000E-003       1.0000000000E-003       0.0000000000E+000       1.0000000015E+000       0.0000000000E+000       2.7777777806E-003       3.0797909095E-001
       0.0000000000E+000       5.6073743527E-001       2.6460890098E-011       1.1094300163E+002      -2.6388318767E-004       0.0000000000E+000       1.0000000014E+000       6.7734912861E+001       1.4882030356E+003       6.6666666667E-002       1.0000000000E-003       1.0000000000E-003       0.0000000000E+000       1.0000000015E+000       0.0000000000E+000       2.7777777806E-003       3.0616797025E-001
       0.0000000000E+000       5.7698975628E-001       2.7653758255E-011       1.1001439111E+002      -2.6388321792E-004       0.0000000000E+000       1.0000000014E+000       6.8300548099E+001       1.5250165124E+003       6.6666666667E-002       1.0000000000E-003       1.0000000000E-003       0.0000000000E+000       1.0000000015E+000       0.0000000000E+000       2.7777777806E-003       3.0389162431E-001
       0.0000000000E+000       5.9288716879E-001       2.8803057297E-011       1.0908378589E+002      -2.6388324728E-004       0.0000000000E+000       1.0000000014E+000       6.8773040725E+001       1.5607176913E+003       6.6666666667E-002       1.0000000000E-003       1.0000000000E-003       0.0000000000E+000       1.0000000015E+000       0.0000000000E+000       2.7777777806E-003       3.0118592565E-001
       0.0000000000E+000       6.0842196558E-001       2.9904898795E-011       1.0815194218E+002      -2.6388327571E-004       0.0000000000E+000       1.0000000014E+000       6.9156014812E+001       1.5953109773E+003       6.6666666667E-002       1.0000000000E-003       1.0000000000E-003       0.0000000000E+000       1.0000000015E+000       0.0000000000E+000       2.7777777806E-003       2.9808626898E-001
       0.0000000000E+000       6.2358767156E-001       3.0955232757E-011       1.0721958739E+002      -2.6388330317E-004       0.0000000000E+000       1.0000000014E+000       6.9453157175E+001       1.6287999325E+003       6.6666666667E-002       1.0000000000E-003       1.0000000000E-003       0.0000000000E+000       1.0000000015E+000       0.0000000000E+000       2.7777777806E-003       2.9462730936E-001
       0.0000000000E+000       6.3837901513E-001       3.1949775359E-011       1.0628741973E+002      -2.6388332963E-004       0.0000000000E+000       1.0000000014E+000       6.9668196231E+001       1.6611871712E+003       6.6666666667E-002       1.0000000000E-003       1.0000000000E-003       0.0000000000E+000       1.0000000015E+000       0.0000000000E+000       2.7777777806E-003       2.9084271843E-001
       0.0000000000E+000       6.5279189332E-001       3.2884308802E-011       1.0535610757E+002      -2.6388335505E-004       0.0000000000E+000       1.0000000014E+000       6.9804885066E+001       1.6924744177E+003       6.6666666667E-002       1.0000000000E-003       1.0000000000E-003       0.0000000000E+000       1.0000000015E+000       0.0000000000E+000       2.7777777806E-003       2.8676495962E-001
       0.0000000000E+000       6.6682333117E-001       3.3754502621E-011       1.0442628863E+002      -2.6388337941E-004       0.0000000000E+000       1.0000000014E+000       6.9866988672E+001       1.7226627376E+003       6.6666666667E-002       1.0000000000E-003       1.0000000000E-003       0.0000000000E+000       1.0000000015E+000       0.0000000000E+000       2.7777777806E-003       2.8242508418E-001
       0.0000000000E+000       6.8047143635E-001       3.4555981639E-011       1.0349856907E+002      -2.6388340268E-004       0.0000000000E+000       1.0000000014E+000       6.9858275241E+001       1.7517529530E+003       6.6666666667E-002       1.0000000000E-003       1.0000000000E-003       0.0000000000E+000       1.0000000015E+000       0.0000000000E+000       2.7777777806E-003       2.7785254925E-001
       0.0000000000E+000       6.9373534961E-001       3.5284082161E-011       1.0257352223E+002      -2.6388342482E-004       0.0000000000E+000       1.0000000014E+000       6.9782511340E+001       1.7797462495E+003       6.6666666667E-002       1.0000000000E-003       1.0000000000E-003       0.0000000000E+000       1.0000000015E+000       0.0000000000E+000       2.7777777806E-003       2.7307506014E-001
       0.0000000000E+000       7.0661519181E-001       3.5934323893E-011       1.0165168724E+002      -2.6388344582E-004       0.0000000000E+000       1.0000000014E+000       6.9643460707E+001       1.8066449808E+003       6.6666666667E-002       1.0000000000E-003       1.0000000000E-003       0.0000000000E+000       1.0000000015E+000       0.0000000000E+000       2.7777777806E-003       2.6811843852E-001
       0.0000000000E+000       7.1911200840E-001       3.6502650142E-011       1.0073356734E+002      -2.6388346565E-004       0.0000000000E+000       1.0000000014E+000       6.9444886342E+001       1.8324536733E+003       6.6666666667E-002       1.0000000000E-003       1.0000000000E-003       0.0000000000E+000       1.0000000015E+000       0.0000000000E+000       2.7777777806E-003       2.6300651867E-001
       0.0000000000E+000       7.3122771176E-001       3.6985611306E-011       9.9819627947E+001      -2.6388348428E-004       0.0000000000E+000       1.0000000014E+000       6.9190555508E+001       1.8571802300E+003       6.6666666667E-002       1.0000000000E-003       1.0000000000E-003       0.0000000000E+000       1.0000000015E+000       0.0000000000E+000       2.7777777806E-003       2.5776107372E-001
       0.0000000000E+000       7.4296502236E-001       3.7379751192E-011       9.8910294544E+001      -2.6388350170E-004       0.0000000000E+000       1.0000000014E+000       6.8884247198E+001       1.8808373301E+003       6.6666666667E-002       1.0000000000E-003       1.0000000000E-003       0.0000000000E+000       1.0000000015E+000       0.0000000000E+000       2.7777777806E-003       2.5240177364E-001
       0.0000000000E+000       7.5432740911E-001       3.7681717798E-011       9.8005950299E+001      -2.6388351787E-004       0.0000000000E+000       1.0000000014E+000       6.8529761594E+001       1.9034440183E+003       6.6666666667E-002       1.0000000000E-003       1.0000000000E-003       0.0000000000E+000       1.0000000015E+000       0.0000000000E+000       2.7777777806E-003       2.4694617636E-001
       0.0000000000E+000       7.6531902954E-001       3.7888753879E-011       9.7106933553E+001      -2.6388353278E-004       0.0000000000E+000       1.0000000014E+000       6.8130931050E+001       1.9250274747E+003       6.6666666667E-002       1.0000000000E-003       1.0000000000E-003       0.0000000000E+000       1.0000000015E+000       0.0000000000E+000       2.7777777806E-003       2.4140975256E-001
       0.0000000000E+000       7.7594467035E-001       3.7998182939E-011       9.6213535163E+001      -2.6388354641E-004       0.0000000000E+000       1.0000000014E+000       6.7691632148E+001       1.9456249598E+003       6.6666666667E-002       1.0000000000E-003       1.0000000000E-003       0.0000000000E+000       1.0000000015E+000       0.0000000000E+000       2.7777777806E-003       2.3580594409E-001
       0.0000000000E+000       7.8620968872E-001       3.8008301704E-011       9.5325995763E+001      -2.6388355874E-004       0.0000000000E+000       1.0000000014E+000       6.7215798426E+001       1.9652859280E+003       6.6666666667E-002       1.0000000000E-003       1.0000000000E-003       0.0000000000E+000       1.0000000015E+000       0.0000000000E+000       2.7777777806E-003       2.3014625474E-001
       0.0000000000E+000       7.9611995484E-001       3.7918032453E-011       9.4444503015E+001      -2.6388356975E-004       0.0000000000E+000       1.0000000014E+000       6.6707433466E+001       1.9840743109E+003       6.6666666667E-002       1.0000000000E-003       1.0000000000E-003       0.0000000000E+000       1.0000000015E+000       0.0000000000E+000       2.7777777806E-003       2.2444037079E-001
       0.0000000000E+000       8.0568179598E-001       3.7726354492E-011       9.3569188873E+001      -2.6388357942E-004       0.0000000000E+000       1.0000000014E+000       6.6170624152E+001       2.0020709818E+003       6.6666666667E-002       1.0000000000E-003       1.0000000000E-003       0.0000000000E+000       1.0000000015E+000       0.0000000000E+000       2.7777777806E-003       2.1869630774E-001
       0.0000000000E+000       8.1490194236E-001       3.7433110483E-011       9.2700126930E+001      -2.6388358772E-004       0.0000000000E+000       1.0000000014E+000       6.5609554021E+001       2.0193764249E+003       6.6666666667E-002       1.0000000000E-003       1.0000000000E-003       0.0000000000E+000       1.0000000015E+000       0.0000000000E+000       2.7777777806E-003       2.1292057805E-001
       0.0000000000E+000       8.2378747516E-001       3.7039203526E-011       9.1837329848E+001      -2.6388359465E-004       0.0000000000E+000       1.0000000014E+000       6.5028516800E+001       2.0361136535E+003       6.6666666667E-002       1.0000000000E-003       1.0000000000E-003       0.0000000000E+000       1.0000000015E+000       0.0000000000E+000       2.7777777806E-003       2.0711837378E-001
       0.0000000000E+000       8.3234577677E-001       3.6546221816E-011       9.0980746900E+001      -2.6388360020E-004       0.0000000000E+000       1.0000000014E+000       6.4431930404E+001       2.0524314454E+003       6.6666666667E-002       1.0000000000E-003       1.0000000000E-003       0.0000000000E+000       1.0000000015E+000       0.0000000000E+000       2.7777777806E-003       2.0129375695E-001
       0.0000000000E+000       8.4058448357E-001       3.5956601079E-011       9.0130261580E+001      -2.6388360436E-004       0.0000000000E+000       1.0000000014E+000       6.3824351771E+001       2.0685079964E+003       6.6666666667E-002       1.0000000000E-003       1.0000000000E-003       0.0000000000E+000       1.0000000015E+000       0.0000000000E+000       2.7777777806E-003       1.9544984980E-001
       0.0000000000E+000       8.4851144115E-001       3.5273708314E-011       8.9285689223E+001      -2.6388360712E-004       0.0000000000E+000       1.0000000014E+000       6.3210493147E+001       2.0845551267E+003       6.6666666667E-002       1.0000000000E-003       1.0000000000E-003       0.0000000000E+000       1.0000000015E+000       0.0000000000E+000       2.7777777806E-003       1.8958901694E-001
       0.0000000000E+000       8.5613466229E-001       3.4501416909E-011       8.8446774543E+001      -2.6388360850E-004       0.0000000000E+000       1.0000000014E+000       6.2595240468E+001       2.1008232240E+003       6.6666666667E-002       1.0000000000E-003       1.0000000000E-003       0.0000000000E+000       1.0000000015E+000       0.0000000000E+000       2.7777777806E-003       1.8371303169E-001
       0.0000000000E+000       8.6346228758E-001       3.3644133583E-011       8.7613188919E+001      -2.6388360851E-004       0.0000000000E+000       1.0000000014E+000       6.1983674642E+001       2.1176071530E+003       6.6666666667E-002       1.0000000000E-003       1.0000000000E-003       0.0000000000E+000       1.0000000015E+000       0.0000000000E+000       2.7777777806E-003       1.7782321978E-001
       0.0000000000E+000       8.7050254873E-001       3.2706869886E-011       8.6784527237E+001      -2.6388360715E-004       0.0000000000E+000       1.0000000014E+000       6.1381096491E+001       2.1352534229E+003       6.6666666667E-002       1.0000000000E-003       1.0000000000E-003       0.0000000000E+000       1.0000000015E+000       0.0000000000E+000       2.7777777806E-003       1.7192057528E-001
       0.0000000000E+000       8.7726373460E-001       3.1695281617E-011       8.5960304038E+001      -2.6388360446E-004       0.0000000000E+000       1.0000000014E+000       6.0793056114E+001       2.1541689649E+003       6.6666666667E-002       1.0000000000E-003       1.0000000000E-003       0.0000000000E+000       1.0000000015E+000       0.0000000000E+000       2.7777777806E-003       1.6600584599E-001
       0.0000000000E+000       8.8375415988E-001       3.0615451424E-011       8.5139948640E+001      -2.6388360045E-004       0.0000000000E+000       1.0000000014E+000       6.0225387219E+001       2.1748319459E+003       6.6666666667E-002       1.0000000000E-003       1.0000000000E-003       0.0000000000E+000       1.0000000015E+000       0.0000000000E+000       2.7777777806E-003       1.6007958892E-001
       0.0000000000E+000       8.8998213639E-001       2.9473684471E-011       8.4322798889E+001      -2.6388359518E-004       0.0000000000E+000       1.0000000014E+000       5.9684246739E+001       2.1978051153E+003       6.6666666667E-002       1.0000000000E-003       1.0000000000E-003       0.0000000000E+000       1.0000000015E+000       0.0000000000E+000       2.7777777806E-003       1.5414220086E-001
       0.0000000000E+000       8.9595594686E-001       2.8276481580E-011       8.3508093105E+001      -2.6388358867E-004       0.0000000000E+000       1.0000000014E+000       5.9176159611E+001       2.2237522684E+003       6.6666666667E-002       1.0000000000E-003       1.0000000000E-003       0.0000000000E+000       1.0000000015E+000       0.0000000000E+000       2.7777777806E-003       1.4819393422E-001
       0.0000000000E+000       9.0168382125E-001       2.7030415469E-011       8.2694959784E+001      -2.6388358097E-004       0.0000000000E+000       1.0000000014E+000       5.8708068043E+001       2.2534584887E+003       6.6666666667E-002       1.0000000000E-003       1.0000000000E-003       0.0000000000E+000       1.0000000015E+000       0.0000000000E+000       2.7777777806E-003       1.4223491452E-001
       0.0000000000E+000       9.0717391533E-001       2.5742070177E-011       8.1882404562E+001      -2.6388357214E-004       0.0000000000E+000       1.0000000014E+000       5.8287383903E+001       2.2878549269E+003       6.6666666667E-002       1.0000000000E-003       1.0000000000E-003       0.0000000000E+000       1.0000000015E+000       0.0000000000E+000       2.7777777806E-003       1.3626518234E-001
       0.0000000000E+000       9.1243429153E-001       2.4417983781E-011       8.1069293992E+001      -2.6388356225E-004       0.0000000000E+000       1.0000000014E+000       5.7922041996E+001       2.3280489634E+003       6.6666666667E-002       1.0000000000E-003       1.0000000000E-003       0.0000000000E+000       1.0000000015E+000       0.0000000000E+000       2.7777777806E-003       1.3028478840E-001
       0.0000000000E+000       9.1747290199E-001       2.3064638551E-011       8.0254335689E+001      -2.6388355134E-004       0.0000000000E+000       1.0000000014E+000       5.7620551043E+001       2.3753607019E+003       6.6666666667E-002       1.0000000000E-003       1.0000000000E-003       0.0000000000E+000       1.0000000015E+000       0.0000000000E+000       2.7777777806E-003       1.2429397472E-001
       0.0000000000E+000       9.2229757354E-001       2.1688304246E-011       7.9436054526E+001      -2.6388353950E-004       0.0000000000E+000       1.0000000014E+000       5.7392038088E+001       2.4313668382E+003       6.6666666667E-002       1.0000000000E-003       1.0000000000E-003       0.0000000000E+000       1.0000000015E+000       0.0000000000E+000       2.7777777806E-003       1.1829347458E-001
       0.0000000000E+000       9.2691599462E-001       2.0294974894E-011       7.8612764689E+001      -2.6388352680E-004       0.0000000000E+000       1.0000000014E+000       5.7246280857E+001       2.4979530463E+003       6.6666666667E-002       1.0000000000E-003       1.0000000000E-003       0.0000000000E+000       1.0000000015E+000       0.0000000000E+000       2.7777777806E-003       1.1228495741E-001
       0.0000000000E+000       9.3133570398E-001       1.8890161652E-011       7.7782537641E+001      -2.6388351331E-004       0.0000000000E+000       1.0000000014E+000       5.7193721241E+001       2.5773760991E+003       6.6666666667E-002       1.0000000000E-003       1.0000000000E-003       0.0000000000E+000       1.0000000015E+000       0.0000000000E+000       2.7777777806E-003       1.0627162811E-001
       0.0000000000E+000       9.3556408104E-001       1.7478904897E-011       7.6943166237E+001      -2.6388349913E-004       0.0000000000E+000       1.0000000014E+000       5.7245451464E+001       2.6723369714E+003       6.6666666667E-002       1.0000000000E-003       1.0000000000E-003       0.0000000000E+000       1.0000000015E+000       0.0000000000E+000       2.7777777806E-003       1.0025896187E-001
       0.0000000000E+000       9.3960833779E-001       1.6065750461E-011       7.6092125568E+001      -2.6388348434E-004       0.0000000000E+000       1.0000000014E+000       5.7413162469E+001       2.7860661189E+003       6.6666666667E-002       1.0000000000E-003       1.0000000000E-003       0.0000000000E+000       1.0000000015E+000       0.0000000000E+000       2.7777777806E-003       9.4255515328E-002
       0.0000000000E+000       9.4347551212E-001       1.4654626893E-011       7.5226531225E+001      -2.6388346902E-004       0.0000000000E+000       1.0000000014E+000       5.7709041436E+001       2.9224219241E+003       6.6666666667E-002       1.0000000000E-003       1.0000000000E-003       0.0000000000E+000       1.0000000015E+000       0.0000000000E+000       2.7777777806E-003       8.8273706871E-002