 VARIABLES ="X","Y","U","W","P","C","T","k","eps", "v2","omega","nuSA","yplus","RHO","Pe","mu","mut"
 ZONE I=            98  J=           392  F=POINT 
       0.0000000000E+000      -4.6333968368E-003       0.0000000000E+000       1.8409714257E+001       6.0576595836E+001       0.0000000000E+000       9.9999999878E-001       9.4200184719E-001       2.1518219362E+000       6.6666666667E-002       1.0000000000E-003       1.0000000000E-003       0.0000000000E+000       1.0000000000E+000       0.0000000000E+000       2.7777777791E-003       4.3895678443E-002
       0.0000000000E+000       4.6333968368E-003       0.0000000000E+000       1.8409714257E+001       6.0576595836E+001       0.0000000000E+000       9.9999999878E-001       9.4200184719E-001       2.1518219362E+000       6.6666666667E-002       1.0000000000E-003       1.0000000000E-003       0.0000000000E+000       1.0000000000E+000       0.0000000000E+000       2.7777777791E-003       4.3895678443E-002
       0.0000000000E+000       1.3960125430E-002       0.0000000000E+000       1.8406004853E+001       6.0576547682E+001       0.0000000000E+000       9.9999999878E-001       9.4472824803E-001       2.1622943530E+000       6.6666666667E-002       1.0000000000E-003       1.0000000000E-003       0.0000000000E+000       1.0000000000E+000       0.0000000000E+000       2.7777777791E-003       4.3748527526E-002
       0.0000000000E+000       2.3401918894E-002       0.0000000000E+000       1.8398424079E+001       6.0576488402E+001       0.0000000000E+000       9.9999999878E-001       9.5029270892E-001       2.1837235651E+000       6.6666666667E-002       1.0000000000E-003       1.0000000000E-003       0.0000000000E+000       1.0000000000E+000       0.0000000000E+000       2.7777777791E-003       4.3626856364E-002
       0.0000000000E+000       3.2948914513E-002       0.0000000000E+000       1.8386829078E+001       6.0576414255E+001       0.0000000000E+000       9.9999999878E-001       9.5878522607E-001       2.2165729099E+000       6.6666666667E-002       1.0000000000E-003       1.0000000000E-003       0.0000000000E+000       1.0000000000E+000       0.0000000000E+000       2.7777777791E-003       4.3530521217E-002
       0.0000000000E+000       4.2590763245E-002       0.0000000000E+000       1.8371098110E+001       6.0576321645E+001       0.0000000000E+000       9.9999999878E-001       9.7027202666E-001       2.2612821298E+000       6.6666666667E-002       1.0000000000E-003       1.0000000000E-003       0.0000000000E+000       1.0000000000E+000       0.0000000000E+000       2.7777777791E-003       4.3458837091E-002
       0.0000000000E+000       5.2316670463E-002       0.0000000000E+000       1.8351132083E+001       6.0576207989E+001       0.0000000000E+000       9.9999999878E-001       9.8479413244E-001       2.3182655417E+000       6.6666666667E-002       1.0000000000E-003       1.0000000000E-003       0.0000000000E+000       1.0000000000E+000       0.0000000000E+000       2.7777777791E-003       4.3410515070E-002
       0.0000000000E+000       6.2115441043E-002       0.0000000000E+000       1.8326855546E+001       6.0576071296E+001       0.0000000000E+000       9.9999999878E-001       1.0023666742E+000       2.3879110480E+000       6.6666666667E-002       1.0000000000E-003       1.0000000000E-003       0.0000000000E+000       1.0000000000E+000       0.0000000000E+000       2.7777777791E-003       4.3383608153E-002
       0.0000000000E+000       7.1975528421E-002       0.0000000000E+000       1.8298217064E+001       6.0575909879E+001       0.0000000000E+000       9.9999999878E-001       1.0229790138E+000       2.4705801990E+000       6.6666666667E-002       1.0000000000E-003       1.0000000000E-003       0.0000000000E+000       1.0000000000E+000       0.0000000000E+000       2.7777777791E-003       4.3375475356E-002
       0.0000000000E+000       8.1885087210E-002       0.0000000000E+000       1.8265188943E+001       6.0575722225E+001       0.0000000000E+000       9.9999999878E-001       1.0465956771E+000       2.5666094861E+000       6.6666666667E-002       1.0000000000E-003       1.0000000000E-003       0.0000000000E+000       1.0000000000E+000       0.0000000000E+000       2.7777777791E-003       4.3382773267E-002
       0.0000000000E+000       9.1832028879E-002       0.0000000000E+000       1.8227766323E+001       6.0575506933E+001       0.0000000000E+000       9.9999999878E-001       1.0731580447E+000       2.6763129710E+000       6.6666666667E-002       1.0000000000E-003       1.0000000000E-003       0.0000000000E+000       1.0000000000E+000       0.0000000000E+000       2.7777777791E-003       4.3401481522E-002
       0.0000000000E+000       1.0180407995E-001       0.0000000000E+000       1.8185965682E+001       6.0575262685E+001       0.0000000000E+000       9.9999999878E-001       1.1025866933E+000       2.7999862654E+000       6.6666666667E-002       1.0000000000E-003       1.0000000000E-003       0.0000000000E+000       1.0000000000E+000       0.0000000000E+000       2.7777777791E-003       4.3426964447E-002
       0.0000000000E+000       1.1178884212E-001       0.0000000000E+000       1.8139822856E+001       6.0574988243E+001       0.0000000000E+000       9.9999999878E-001       1.1347842360E+000       2.9379117650E+000       6.6666666667E-002       1.0000000000E-003       1.0000000000E-003       0.0000000000E+000       1.0000000000E+000       0.0000000000E+000       2.7777777791E-003       4.3454066520E-002
       0.0000000000E+000       1.2177385375E-001       0.0000000000E+000       1.8089390681E+001       6.0574682455E+001       0.0000000000E+000       9.9999999878E-001       1.1696384847E+000       3.0903649473E+000       6.6666666667E-002       1.0000000000E-003       1.0000000000E-003       0.0000000000E+000       1.0000000000E+000       0.0000000000E+000       2.7777777791E-003       4.3477235287E-002
       0.0000000000E+000       1.3174665193E-001       0.0000000000E+000       1.8034736401E+001       6.0574344253E+001       0.0000000000E+000       9.9999999878E-001       1.2070257494E+000       3.2576214681E+000       6.6666666667E-002       1.0000000000E-003       1.0000000000E-003       0.0000000000E+000       1.0000000000E+000       0.0000000000E+000       2.7777777791E-003       4.3490662712E-002
       0.0000000000E+000       1.4169483466E-001       0.0000000000E+000       1.7975938975E+001       6.0573972674E+001       0.0000000000E+000       9.9999999878E-001       1.2468141025E+000       3.4399647597E+000       6.6666666667E-002       1.0000000000E-003       1.0000000000E-003       0.0000000000E+000       1.0000000000E+000       0.0000000000E+000       2.7777777791E-003       4.3488434957E-002
       0.0000000000E+000       1.5160612229E-001       0.0000000000E+000       1.7913086405E+001       6.0573566866E+001       0.0000000000E+000       9.9999999878E-001       1.2888664583E+000       3.6376938269E+000       6.6666666667E-002       1.0000000000E-003       1.0000000000E-003       0.0000000000E+000       1.0000000000E+000       0.0000000000E+000       2.7777777791E-003       4.3464681023E-002
       0.0000000000E+000       1.6146841776E-001       0.0000000000E+000       1.7846273171E+001       6.0573126102E+001       0.0000000000E+000       9.9999999878E-001       1.3330433573E+000       3.8511309737E+000       6.6666666667E-002       1.0000000000E-003       1.0000000000E-003       0.0000000000E+000       1.0000000000E+000       0.0000000000E+000       2.7777777791E-003       4.3413712267E-002
       0.0000000000E+000       1.7126986487E-001       0.0000000000E+000       1.7775597872E+001       6.0572649796E+001       0.0000000000E+000       9.9999999878E-001       1.3792053794E+000       4.0806292409E+000       6.6666666667E-002       1.0000000000E-003       1.0000000000E-003       0.0000000000E+000       1.0000000000E+000       0.0000000000E+000       2.7777777791E-003       4.3330146887E-002
       0.0000000000E+000       1.8099890407E-001       0.0000000000E+000       1.7701161086E+001       6.0572137515E+001       0.0000000000E+000       9.9999999878E-001       1.4272151463E+000       4.3265793981E+000       6.6666666667E-002       1.0000000000E-003       1.0000000000E-003       0.0000000000E+000       1.0000000000E+000       0.0000000000E+000       2.7777777791E-003       4.3209015682E-002
       0.0000000000E+000       1.9064432522E-001       0.0000000000E+000       1.7623063497E+001       6.0571588991E+001       0.0000000000E+000       9.9999999878E-001       1.4769389037E+000       4.5894163977E+000       6.6666666667E-002       1.0000000000E-003       1.0000000000E-003       0.0000000000E+000       1.0000000000E+000       0.0000000000E+000       2.7777777791E-003       4.3045847374E-002
       0.0000000000E+000       2.0019531677E-001       0.0000000000E+000       1.7541404281E+001       6.0571004135E+001       0.0000000000E+000       9.9999999878E-001       1.5282477000E+000       4.8696252504E+000       6.6666666667E-002       1.0000000000E-003       1.0000000000E-003       0.0000000000E+000       1.0000000000E+000       0.0000000000E+000       2.7777777791E-003       4.2836733377E-002
       0.0000000000E+000       2.0964151104E-001       0.0000000000E+000       1.7456279736E+001       6.0570383047E+001       0.0000000000E+000       9.9999999878E-001       1.5810181880E+000       5.1677463331E+000       6.6666666667E-002       1.0000000000E-003       1.0000000000E-003       0.0000000000E+000       1.0000000000E+000       0.0000000000E+000       2.7777777791E-003       4.2578373012E-002
       0.0000000000E+000       2.1897302515E-001       0.0000000000E+000       1.7367782141E+001       6.0569726028E+001       0.0000000000E+000       9.9999999878E-001       1.6351330940E+000       5.4843801685E+000       6.6666666667E-002       1.0000000000E-003       1.0000000000E-003       0.0000000000E+000       1.0000000000E+000       0.0000000000E+000       2.7777777791E-003       4.2268100882E-002
       0.0000000000E+000       2.2818049727E-001       0.0000000000E+000       1.7275998819E+001       6.0569033581E+001       0.0000000000E+000       9.9999999878E-001       1.6904813936E+000       5.8201917404E+000       6.6666666667E-002       1.0000000000E-003       1.0000000000E-003       0.0000000000E+000       1.0000000000E+000       0.0000000000E+000       2.7777777791E-003       4.1903898490E-002
       0.0000000000E+000       2.3725511815E-001       0.0000000000E+000       1.7181011363E+001       6.0568306425E+001       0.0000000000E+000       9.9999999878E-001       1.7469582420E+000       6.1759144203E+000       6.6666666667E-002       1.0000000000E-003       1.0000000000E-003       0.0000000000E+000       1.0000000000E+000       0.0000000000E+000       2.7777777791E-003       4.1484392303E-002
       0.0000000000E+000       2.4618865751E-001       0.0000000000E+000       1.7082895012E+001       6.0567545492E+001       0.0000000000E+000       9.9999999878E-001       1.8044646959E+000       6.5523535823E+000       6.6666666667E-002       1.0000000000E-003       1.0000000000E-003       0.0000000000E+000       1.0000000000E+000       0.0000000000E+000       2.7777777791E-003       4.1008840377E-002
       0.0000000000E+000       2.5497348552E-001       0.0000000000E+000       1.6981718142E+001       6.0566751928E+001       0.0000000000E+000       9.9999999878E-001       1.8629072657E+000       6.9503899831E+000       6.6666666667E-002       1.0000000000E-003       1.0000000000E-003       0.0000000000E+000       1.0000000000E+000       0.0000000000E+000       2.7777777791E-003       4.0477109557E-002
       0.0000000000E+000       2.6360258909E-001       0.0000000000E+000       1.6877541845E+001       6.0565927094E+001       0.0000000000E+000       9.9999999878E-001       1.9221973275E+000       7.3709829769E+000       6.6666666667E-002       1.0000000000E-003       1.0000000000E-003       0.0000000000E+000       1.0000000000E+000       0.0000000000E+000       2.7777777791E-003       3.9889645022E-002
       0.0000000000E+000       2.7206958327E-001       0.0000000000E+000       1.6770419581E+001       6.0565072555E+001       0.0000000000E+000       9.9999999878E-001       1.9822504201E+000       7.8151736225E+000       6.6666666667E-002       1.0000000000E-003       1.0000000000E-003       0.0000000000E+000       1.0000000000E+000       0.0000000000E+000       2.7777777791E-003       3.9247433768E-002
       0.0000000000E+000       2.8036871763E-001       0.0000000000E+000       1.6660396879E+001       6.0564190081E+001       0.0000000000E+000       9.9999999878E-001       2.0429854460E+000       8.2840877327E+000       6.6666666667E-002       1.0000000000E-003       1.0000000000E-003       0.0000000000E+000       1.0000000000E+000       0.0000000000E+000       2.7777777791E-003       3.8551963406E-002
       0.0000000000E+000       2.8849487814E-001       0.0000000000E+000       1.6547511070E+001       6.0563281626E+001       0.0000000000E+000       9.9999999878E-001       2.1043237917E+000       8.7789389017E+000       6.6666666667E-002       1.0000000000E-003       1.0000000000E-003       0.0000000000E+000       1.0000000000E+000       0.0000000000E+000       2.7777777791E-003       3.7805177503E-002
       0.0000000000E+000       2.9644358439E-001       0.0000000000E+000       1.6431791044E+001       6.0562349324E+001       0.0000000000E+000       9.9999999878E-001       2.1661883759E+000       9.3010315323E+000       6.6666666667E-002       1.0000000000E-003       1.0000000000E-003       0.0000000000E+000       1.0000000000E+000       0.0000000000E+000       2.7777777791E-003       3.7009428503E-002
       0.0000000000E+000       3.0421098279E-001       0.0000000000E+000       1.6313257006E+001       6.0561395465E+001       0.0000000000E+000       9.9999999878E-001       2.2285026314E+000       9.8517638742E+000       6.6666666667E-002       1.0000000000E-003       1.0000000000E-003       0.0000000000E+000       1.0000000000E+000       0.0000000000E+000       2.7777777791E-003       3.6167429176E-002
       0.0000000000E+000       3.1179383578E-001       0.0000000000E+000       1.6191920239E+001       6.0560422485E+001       0.0000000000E+000       9.9999999878E-001       2.2911894226E+000       1.0432631065E+001       6.6666666667E-002       1.0000000000E-003       1.0000000000E-003       0.0000000000E+000       1.0000000000E+000       0.0000000000E+000       2.7777777791E-003       3.5282203422E-002
       0.0000000000E+000       3.1918950757E-001       0.0000000000E+000       1.6067782838E+001       6.0559432941E+001       0.0000000000E+000       9.9999999878E-001       2.3541698968E+000       1.1045228154E+001       6.6666666667E-002       1.0000000000E-003       1.0000000000E-003       0.0000000000E+000       1.0000000000E+000       0.0000000000E+000       2.7777777791E-003       3.4357037152E-002
       0.0000000000E+000       3.2639594666E-001       0.0000000000E+000       1.5940837432E+001       6.0558429493E+001       0.0000000000E+000       9.9999999878E-001       2.4173622640E+000       1.1691253067E+001       6.6666666667E-002       1.0000000000E-003       1.0000000000E-003       0.0000000000E+000       1.0000000000E+000       0.0000000000E+000       2.7777777791E-003       3.3395429908E-002
       0.0000000000E+000       3.3341166559E-001       0.0000000000E+000       1.5811066864E+001       6.0557414879E+001       0.0000000000E+000       9.9999999878E-001       2.4806804991E+000       1.2372509443E+001       6.6666666667E-002       1.0000000000E-003       1.0000000000E-003       0.0000000000E+000       1.0000000000E+000       0.0000000000E+000       2.7777777791E-003       3.2401047814E-002
       0.0000000000E+000       3.4023571818E-001       0.0000000000E+000       1.5678443832E+001       6.0556391895E+001       0.0000000000E+000       9.9999999878E-001       2.5440329547E+000       1.3090909252E+001       6.6666666667E-002       1.0000000000E-003       1.0000000000E-003       0.0000000000E+000       1.0000000000E+000       0.0000000000E+000       2.7777777791E-003       3.1377678364E-002
       0.0000000000E+000       3.4686767480E-001       0.0000000000E+000       1.5542930476E+001       6.0555363367E+001       0.0000000000E+000       9.9999999878E-001       2.6073208726E+000       1.3848475058E+001       6.6666666667E-002       1.0000000000E-003       1.0000000000E-003       0.0000000000E+000       1.0000000000E+000       0.0000000000E+000       2.7777777791E-003       3.0329187522E-002
       0.0000000000E+000       3.5330759591E-001       0.0000000000E+000       1.5404477911E+001       6.0554332135E+001       0.0000000000E+000       9.9999999878E-001       2.6704367789E+000       1.4647341741E+001       6.6666666667E-002       1.0000000000E-003       1.0000000000E-003       0.0000000000E+000       1.0000000000E+000       0.0000000000E+000       2.7777777791E-003       2.9259479522E-002
       0.0000000000E+000       3.5955600420E-001       0.0000000000E+000       1.5263025675E+001       6.0553301023E+001       0.0000000000E+000       9.9999999878E-001       2.7332627423E+000       1.5489757425E+001       6.6666666667E-002       1.0000000000E-003       1.0000000000E-003       0.0000000000E+000       1.0000000000E+000       0.0000000000E+000       2.7777777791E-003       2.8172459713E-002
       0.0000000000E+000       3.6561385588E-001       0.0000000000E+000       1.5118501112E+001       6.0552272819E+001       0.0000000000E+000       9.9999999878E-001       2.7956684777E+000       1.6378083278E+001       6.6666666667E-002       1.0000000000E-003       1.0000000000E-003       0.0000000000E+000       1.0000000000E+000       0.0000000000E+000       2.7777777791E-003       2.7072000735E-002
       0.0000000000E+000       3.7148251118E-001       0.0000000000E+000       1.4970818655E+001       6.0551250257E+001       0.0000000000E+000       9.9999999878E-001       2.8575092680E+000       1.7314791699E+001       6.6666666667E-002       1.0000000000E-003       1.0000000000E-003       0.0000000000E+000       1.0000000000E+000       0.0000000000E+000       2.7777777791E-003       2.5961912247E-002
       0.0000000000E+000       3.7716370456E-001       0.0000000000E+000       1.4819879002E+001       6.0550235993E+001       0.0000000000E+000       9.9999999878E-001       2.9186236791E+000       1.8302462297E+001       6.6666666667E-002       1.0000000000E-003       1.0000000000E-003       0.0000000000E+000       1.0000000000E+000       0.0000000000E+000       2.7777777791E-003       2.4845914369E-002
       0.0000000000E+000       3.8265951477E-001       0.0000000000E+000       1.4665568192E+001       6.0549232591E+001       0.0000000000E+000       9.9999999878E-001       2.9788310364E+000       1.9343774801E+001       6.6666666667E-002       1.0000000000E-003       1.0000000000E-003       0.0000000000E+000       1.0000000000E+000       0.0000000000E+000       2.7777777791E-003       2.3727614952E-002
       0.0000000000E+000       3.8797233517E-001       0.0000000000E+000       1.4507756539E+001       6.0548242505E+001       0.0000000000E+000       9.9999999878E-001       3.0379286309E+000       2.0441497805E+001       6.6666666667E-002       1.0000000000E-003       1.0000000000E-003       0.0000000000E+000       1.0000000000E+000       0.0000000000E+000       2.7777777791E-003       2.2610490706E-002
       0.0000000000E+000       3.9310484436E-001       0.0000000000E+000       1.4346297438E+001       6.0547268064E+001       0.0000000000E+000       9.9999999878E-001       3.0956886174E+000       2.1598471876E+001       6.6666666667E-002       1.0000000000E-003       1.0000000000E-003       0.0000000000E+000       1.0000000000E+000       0.0000000000E+000       2.7777777791E-003       2.1497872182E-002
       0.0000000000E+000       3.9805997742E-001       0.0000000000E+000       1.4181026025E+001       6.0546311465E+001       0.0000000000E+000       9.9999999878E-001       3.1518545691E+000       2.2817585089E+001       6.6666666667E-002       1.0000000000E-003       1.0000000000E-003       0.0000000000E+000       1.0000000000E+000       0.0000000000E+000       2.7777777791E-003       2.0392932516E-002
       0.0000000000E+000       4.0284089799E-001       0.0000000000E+000       1.4011757670E+001       6.0545374760E+001       0.0000000000E+000       9.9999999878E-001       3.2061376503E+000       2.4101738472E+001       6.6666666667E-002       1.0000000000E-003       1.0000000000E-003       0.0000000000E+000       1.0000000000E+000       0.0000000000E+000       2.7777777791E-003       1.9298679797E-002
       0.0000000000E+000       4.0745097118E-001       0.0000000000E+000       1.3838286313E+001       6.0544459853E+001       0.0000000000E+000       9.9999999878E-001       3.2582123704E+000       2.5453798118E+001       6.6666666667E-002       1.0000000000E-003       1.0000000000E-003       0.0000000000E+000       1.0000000000E+000       0.0000000000E+000       2.7777777791E-003       1.8217952845E-002
       0.0000000000E+000       4.1189373758E-001       0.0000000000E+000       1.3660382634E+001       6.0543568493E+001       0.0000000000E+000       9.9999999878E-001       3.3077118927E+000       2.6876529805E+001       6.6666666667E-002       1.0000000000E-003       1.0000000000E-003       0.0000000000E+000       1.0000000000E+000       0.0000000000E+000       2.7777777791E-003       1.7153420140E-002
       0.0000000000E+000       4.1617288839E-001       0.0000000000E+000       1.3477792058E+001       6.0542702273E+001       0.0000000000E+000       9.9999999878E-001       3.3542228788E+000       2.8372510858E+001       6.6666666667E-002       1.0000000000E-003       1.0000000000E-003       0.0000000000E+000       1.0000000000E+000       0.0000000000E+000       2.7777777791E-003       1.6107581572E-002
       0.0000000000E+000       4.2029224178E-001       0.0000000000E+000       1.3290232605E+001       6.0541862635E+001       0.0000000000E+000       9.9999999878E-001       3.3972798756E+000       2.9944012685E+001       6.6666666667E-002       1.0000000000E-003       1.0000000000E-003       0.0000000000E+000       1.0000000000E+000       0.0000000000E+000       2.7777777791E-003       1.5082772641E-002
       0.0000000000E+000       4.2425572057E-001       0.0000000000E+000       1.3097392631E+001       6.0541050869E+001       0.0000000000E+000       9.9999999878E-001       3.4363592828E+000       3.1592845894E+001       6.6666666667E-002       1.0000000000E-003       1.0000000000E-003       0.0000000000E+000       1.0000000000E+000       0.0000000000E+000       2.7777777791E-003       1.4081170694E-002
       0.0000000000E+000       4.2806733114E-001       0.0000000000E+000       1.2898928482E+001       6.0540268118E+001       0.0000000000E+000       9.9999999878E-001       3.4708729970E+000       3.3320158210E+001       6.6666666667E-002       1.0000000000E-003       1.0000000000E-003       0.0000000000E+000       1.0000000000E+000       0.0000000000E+000       2.7777777791E-003       1.3104802744E-002
       0.0000000000E+000       4.3173114379E-001       0.0000000000E+000       1.2694462158E+001       6.0539515390E+001       0.0000000000E+000       9.9999999878E-001       3.5001619075E+000       3.5126173641E+001       6.6666666667E-002       1.0000000000E-003       1.0000000000E-003       0.0000000000E+000       1.0000000000E+000       0.0000000000E+000       2.7777777791E-003       1.2155554426E-002
       0.0000000000E+000       4.3525127437E-001       0.0000000000E+000       1.2483579086E+001       6.0538793561E+001       0.0000000000E+000       9.9999999878E-001       3.5234895367E+000       3.7009859688E+001       6.6666666667E-002       1.0000000000E-003       1.0000000000E-003       0.0000000000E+000       1.0000000000E+000       0.0000000000E+000       2.7777777791E-003       1.1235179597E-002
       0.0000000000E+000       4.3863186730E-001       0.0000000000E+000       1.2265826195E+001       6.0538103389E+001       0.0000000000E+000       9.9999999878E-001       3.5400362918E+000       3.8968508193E+001       6.6666666667E-002       1.0000000000E-003       1.0000000000E-003       0.0000000000E+000       1.0000000000E+000       0.0000000000E+000       2.7777777791E-003       1.0345310145E-002
       0.0000000000E+000       4.4187707994E-001       0.0000000000E+000       1.2040710519E+001       6.0537445518E+001       0.0000000000E+000       9.9999999878E-001       3.5488950252E+000       4.0997215283E+001       6.6666666667E-002       1.0000000000E-003       1.0000000000E-003       0.0000000000E+000       1.0000000000E+000       0.0000000000E+000       2.7777777791E-003       9.4874655212E-003
       0.0000000000E+000       4.4499106819E-001       0.0000000000E+000       1.1807698704E+001       6.0536820496E+001       0.0000000000E+000       9.9999999878E-001       3.5490689264E+000       4.3088247650E+001       6.6666666667E-002       1.0000000000E-003       1.0000000000E-003       0.0000000000E+000       1.0000000000E+000       0.0000000000E+000       2.7777777791E-003       8.6630615813E-003
       0.0000000000E+000       4.4797797343E-001       0.0000000000E+000       1.1566217905E+001       6.0536228774E+001       0.0000000000E+000       9.9999999878E-001       3.5394731853E+000       4.5230287667E+001       6.6666666667E-002       1.0000000000E-003       1.0000000000E-003       0.0000000000E+000       1.0000000000E+000       0.0000000000E+000       2.7777777791E-003       7.8734182737E-003
       0.0000000000E+000       4.5084191063E-001       0.0000000000E+000       1.1315658750E+001       6.0535670720E+001       0.0000000000E+000       9.9999999878E-001       3.5189424012E+000       4.7407560501E+001       6.6666666667E-002       1.0000000000E-003       1.0000000000E-003       0.0000000000E+000       1.0000000000E+000       0.0000000000E+000       2.7777777791E-003       7.1197656946E-003
       0.0000000000E+000       4.5358695766E-001       0.0000000000E+000       1.1055381296E+001       6.0535146623E+001       0.0000000000E+000       9.9999999878E-001       3.4862463432E+000       4.9598865321E+001       6.6666666667E-002       1.0000000000E-003       1.0000000000E-003       0.0000000000E+000       1.0000000000E+000       0.0000000000E+000       2.7777777791E-003       6.4032479442E-003
       0.0000000000E+000       4.5621714576E-001       0.0000000000E+000       1.0784725141E+001       6.0534656693E+001       0.0000000000E+000       9.9999999878E-001       3.4401173521E+000       5.1776563284E+001       6.6666666667E-002       1.0000000000E-003       1.0000000000E-003       0.0000000000E+000       1.0000000000E+000       0.0000000000E+000       2.7777777791E-003       5.7249240525E-003
       0.0000000000E+000       4.5873645099E-001       0.0000000000E+000       1.0503025202E+001       6.0534201053E+001       0.0000000000E+000       9.9999999878E-001       3.3792932897E+000       5.3905620721E+001       6.6666666667E-002       1.0000000000E-003       1.0000000000E-003       0.0000000000E+000       1.0000000000E+000       0.0000000000E+000       2.7777777791E-003       5.0857649889E-003
       0.0000000000E+000       4.6114878677E-001       0.0000000000E+000       1.0209634904E+001       6.0533779730E+001       0.0000000000E+000       9.9999999878E-001       3.3025802534E+000       5.5942868939E+001       6.6666666667E-002       1.0000000000E-003       1.0000000000E-003       0.0000000000E+000       1.0000000000E+000       0.0000000000E+000       2.7777777791E-003       4.4866454183E-003
       0.0000000000E+000       4.6345799731E-001       0.0000000000E+000       9.9039587208E+000       6.0533392642E+001       0.0000000000E+000       9.9999999878E-001       3.2089388891E+000       5.7836720448E+001       6.6666666667E-002       1.0000000000E-003       1.0000000000E-003       0.0000000000E+000       1.0000000000E+000       0.0000000000E+000       2.7777777791E-003       3.9283284438E-003
       0.0000000000E+000       4.6566785199E-001       0.0000000000E+000       9.5854958319E+000       6.0533039567E+001       0.0000000000E+000       9.9999999878E-001       3.0975964545E+000       5.9527664478E+001       6.6666666667E-002       1.0000000000E-003       1.0000000000E-003       0.0000000000E+000       1.0000000000E+000       0.0000000000E+000       2.7777777791E-003       3.4114412081E-003
       0.0000000000E+000       4.6778204052E-001       0.0000000000E+000       9.2538959988E+000       6.0532720117E+001       0.0000000000E+000       9.9999999878E-001       2.9681831101E+000       6.0949927007E+001       6.6666666667E-002       1.0000000000E-003       1.0000000000E-003       0.0000000000E+000       1.0000000000E+000       0.0000000000E+000       2.7777777791E-003       2.9364390995E-003
       0.0000000000E+000       4.6980416890E-001       0.0000000000E+000       8.9090271921E+000       6.0532433699E+001       0.0000000000E+000       9.9999999878E-001       2.8208845909E+000       6.2034677167E+001       6.6666666667E-002       1.0000000000E-003       1.0000000000E-003       0.0000000000E+000       1.0000000000E+000       0.0000000000E+000       2.7777777791E-003       2.5035568076E-003
       0.0000000000E+000       4.7173775606E-001       0.0000000000E+000       8.5510517636E+000       6.0532179475E+001       0.0000000000E+000       9.9999999878E-001       2.6565944175E+000       6.2715030194E+001       6.6666666667E-002       1.0000000000E-003       1.0000000000E-003       0.0000000000E+000       1.0000000000E+000       0.0000000000E+000       2.7777777791E-003       2.1127460343E-003