 VARIABLES ="X","Y","U","W","C","T","k","eps", "v2","omega","nuSA","yplus","RHO","Pe","mu","mut","lamcp","cp"
 ZONE I=            98  J=           104  F=POINT 
       0.0000000000E+000      -4.6333968368E-003       0.0000000000E+000       1.7845665451E+001       0.0000000000E+000       9.9999999878E-001       1.0806895970E+000       1.0000000000E+000       6.6666666667E-002       2.0108835211E+001       1.0000000000E-003       0.0000000000E+000       1.0000000000E+000       0.0000000000E+000       2.7777777791E-003       5.3742028600E-002       8.6953103861E-004       1.0000000035E+000
       0.0000000000E+000       4.6333968368E-003       0.0000000000E+000       1.7845665451E+001       0.0000000000E+000       9.9999999878E-001       1.0806895970E+000       1.0000000000E+000       6.6666666667E-002       2.0108835211E+001       1.0000000000E-003       0.0000000000E+000       1.0000000000E+000       0.0000000000E+000       2.7777777791E-003       5.3742028600E-002       8.6953103861E-004       1.0000000035E+000
       0.0000000000E+000       1.3960125430E-002       0.0000000000E+000       1.7842606246E+001       0.0000000000E+000       9.9999999878E-001       1.0824329422E+000       1.0000000000E+000       6.6666666667E-002       2.0153028451E+001       1.0000000000E-003       0.0000000000E+000       1.0000000000E+000       0.0000000000E+000       2.7777777791E-003       5.3710683973E-002       8.6953103861E-004       1.0000000035E+000
       0.0000000000E+000       2.3401918894E-002       0.0000000000E+000       1.7836367035E+001       0.0000000000E+000       9.9999999878E-001       1.0859826208E+000       1.0000000000E+000       6.6666666667E-002       2.0243185145E+001       1.0000000000E-003       0.0000000000E+000       1.0000000000E+000       0.0000000000E+000       2.7777777791E-003       5.3646825489E-002       8.6953103861E-004       1.0000000035E+000
       0.0000000000E+000       3.2948914513E-002       0.0000000000E+000       1.7826832764E+001       0.0000000000E+000       9.9999999878E-001       1.0913918927E+000       1.0000000000E+000       6.6666666667E-002       2.0381024077E+001       1.0000000000E-003       0.0000000000E+000       1.0000000000E+000       0.0000000000E+000       2.7777777791E-003       5.3549413836E-002       8.6953103861E-004       1.0000000035E+000
       0.0000000000E+000       4.2590763245E-002       0.0000000000E+000       1.7813894724E+001       0.0000000000E+000       9.9999999878E-001       1.0987033058E+000       1.0000000000E+000       6.6666666667E-002       2.0568208980E+001       1.0000000000E-003       0.0000000000E+000       1.0000000000E+000       0.0000000000E+000       2.7777777791E-003       5.3417548747E-002       8.6953103861E-004       1.0000000035E+000
       0.0000000000E+000       5.2316670463E-002       0.0000000000E+000       1.7797451141E+001       0.0000000000E+000       9.9999999878E-001       1.1079478264E+000       1.0000000000E+000       6.6666666667E-002       2.0806346681E+001       1.0000000000E-003       0.0000000000E+000       1.0000000000E+000       0.0000000000E+000       2.7777777791E-003       5.3250474166E-002       8.6953103861E-004       1.0000000035E+000
       0.0000000000E+000       6.2115441043E-002       0.0000000000E+000       1.7777407712E+001       0.0000000000E+000       9.9999999878E-001       1.1191440979E+000       1.0000000000E+000       6.6666666667E-002       2.1096987049E+001       1.0000000000E-003       0.0000000000E+000       1.0000000000E+000       0.0000000000E+000       2.7777777791E-003       5.3047579510E-002       8.6953103861E-004       1.0000000035E+000
       0.0000000000E+000       7.1975528421E-002       0.0000000000E+000       1.7753678118E+001       0.0000000000E+000       9.9999999878E-001       1.1322978502E+000       1.0000000000E+000       6.6666666667E-002       2.1441625012E+001       1.0000000000E-003       0.0000000000E+000       1.0000000000E+000       0.0000000000E+000       2.7777777791E-003       5.2808397199E-002       8.6953103861E-004       1.0000000035E+000
       0.0000000000E+000       8.1885087210E-002       0.0000000000E+000       1.7726184469E+001       0.0000000000E+000       9.9999999878E-001       1.1474014784E+000       1.0000000000E+000       6.6666666667E-002       2.1841704882E+001       1.0000000000E-003       0.0000000000E+000       1.0000000000E+000       0.0000000000E+000       2.7777777791E-003       5.2532596913E-002       8.6953103861E-004       1.0000000035E+000
       0.0000000000E+000       9.1832028879E-002       0.0000000000E+000       1.7694857704E+001       0.0000000000E+000       9.9999999878E-001       1.1644338059E+000       1.0000000000E+000       6.6666666667E-002       2.2298627210E+001       1.0000000000E-003       0.0000000000E+000       1.0000000000E+000       0.0000000000E+000       2.7777777791E-003       5.2219977265E-002       8.6953103861E-004       1.0000000035E+000
       0.0000000000E+000       1.0180407995E-001       0.0000000000E+000       1.7659637907E+001       0.0000000000E+000       9.9999999878E-001       1.1833600438E+000       1.0000000000E+000       6.6666666667E-002       2.2813758355E+001       1.0000000000E-003       0.0000000000E+000       1.0000000000E+000       0.0000000000E+000       2.7777777791E-003       5.1870455776E-002       8.6953103861E-004       1.0000000035E+000
       0.0000000000E+000       1.1178884212E-001       0.0000000000E+000       1.7620474546E+001       0.0000000000E+000       9.9999999878E-001       1.2041319520E+000       1.0000000000E+000       6.6666666667E-002       2.3388442888E+001       1.0000000000E-003       0.0000000000E+000       1.0000000000E+000       0.0000000000E+000       2.7777777791E-003       5.1484058076E-002       8.6953103861E-004       1.0000000035E+000
       0.0000000000E+000       1.2177385375E-001       0.0000000000E+000       1.7577326630E+001       0.0000000000E+000       9.9999999878E-001       1.2266882021E+000       1.0000000000E+000       6.6666666667E-002       2.4024018912E+001       1.0000000000E-003       0.0000000000E+000       1.0000000000E+000       0.0000000000E+000       2.7777777791E-003       5.1060907277E-002       8.6953103861E-004       1.0000000035E+000
       0.0000000000E+000       1.3174665193E-001       0.0000000000E+000       1.7530162751E+001       0.0000000000E+000       9.9999999878E-001       1.2509549369E+000       1.0000000000E+000       6.6666666667E-002       2.4721836292E+001       1.0000000000E-003       0.0000000000E+000       1.0000000000E+000       0.0000000000E+000       2.7777777791E-003       5.0601214335E-002       8.6953103861E-004       1.0000000035E+000
       0.0000000000E+000       1.4169483466E-001       0.0000000000E+000       1.7478961041E+001       0.0000000000E+000       9.9999999878E-001       1.2768465122E+000       1.0000000000E+000       6.6666666667E-002       2.5483277723E+001       1.0000000000E-003       0.0000000000E+000       1.0000000000E+000       0.0000000000E+000       2.7777777791E-003       5.0105270056E-002       8.6953103861E-004       1.0000000035E+000
       0.0000000000E+000       1.5160612229E-001       0.0000000000E+000       1.7423709014E+001       0.0000000000E+000       9.9999999878E-001       1.3042664042E+000       1.0000000000E+000       6.6666666667E-002       2.6309782523E+001       1.0000000000E-003       0.0000000000E+000       1.0000000000E+000       0.0000000000E+000       2.7777777791E-003       4.9573439198E-002       8.6953103861E-004       1.0000000035E+000
       0.0000000000E+000       1.6146841776E-001       0.0000000000E+000       1.7364403300E+001       0.0000000000E+000       9.9999999878E-001       1.3331082581E+000       1.0000000000E+000       6.6666666667E-002       2.7202872930E+001       1.0000000000E-003       0.0000000000E+000       1.0000000000E+000       0.0000000000E+000       2.7777777791E-003       4.9006156868E-002       8.6953103861E-004       1.0000000035E+000
       0.0000000000E+000       1.7126986487E-001       0.0000000000E+000       1.7301049280E+001       0.0000000000E+000       9.9999999878E-001       1.3632570503E+000       1.0000000000E+000       6.6666666667E-002       2.8164182710E+001       1.0000000000E-003       0.0000000000E+000       1.0000000000E+000       0.0000000000E+000       2.7777777791E-003       4.8403927226E-002       8.6953103861E-004       1.0000000035E+000
       0.0000000000E+000       1.8099890407E-001       0.0000000000E+000       1.7233660619E+001       0.0000000000E+000       9.9999999878E-001       1.3945903330E+000       1.0000000000E+000       6.6666666667E-002       2.9195487782E+001       1.0000000000E-003       0.0000000000E+000       1.0000000000E+000       0.0000000000E+000       2.7777777791E-003       4.7767324300E-002       8.6953103861E-004       1.0000000035E+000
       0.0000000000E+000       1.9064432522E-001       0.0000000000E+000       1.7162258712E+001       0.0000000000E+000       9.9999999878E-001       1.4269795296E+000       1.0000000000E+000       6.6666666667E-002       3.0298738646E+001       1.0000000000E-003       0.0000000000E+000       1.0000000000E+000       0.0000000000E+000       2.7777777791E-003       4.7096994575E-002       8.6953103861E-004       1.0000000035E+000
       0.0000000000E+000       2.0019531677E-001       0.0000000000E+000       1.7086872034E+001       0.0000000000E+000       9.9999999878E-001       1.4602912471E+000       1.0000000000E+000       6.6666666667E-002       3.1476094331E+001       1.0000000000E-003       0.0000000000E+000       1.0000000000E+000       0.0000000000E+000       2.7777777791E-003       4.6393660909E-002       8.6953103861E-004       1.0000000035E+000
       0.0000000000E+000       2.0964151104E-001       0.0000000000E+000       1.7007535438E+001       0.0000000000E+000       9.9999999878E-001       1.4943885750E+000       1.0000000000E+000       6.6666666667E-002       3.2729957706E+001       1.0000000000E-003       0.0000000000E+000       1.0000000000E+000       0.0000000000E+000       2.7777777791E-003       4.5658127284E-002       8.6953103861E-004       1.0000000035E+000
       0.0000000000E+000       2.1897302515E-001       0.0000000000E+000       1.6924289373E+001       0.0000000000E+000       9.9999999878E-001       1.5291323410E+000       1.0000000000E+000       6.6666666667E-002       3.4063011982E+001       1.0000000000E-003       0.0000000000E+000       1.0000000000E+000       0.0000000000E+000       2.7777777791E-003       4.4891283888E-002       8.6953103861E-004       1.0000000035E+000
       0.0000000000E+000       2.2818049727E-001       0.0000000000E+000       1.6837179068E+001       0.0000000000E+000       9.9999999878E-001       1.5643822982E+000       1.0000000000E+000       6.6666666667E-002       3.5478258356E+001       1.0000000000E-003       0.0000000000E+000       1.0000000000E+000       0.0000000000E+000       2.7777777791E-003       4.4094112020E-002       8.6953103861E-004       1.0000000035E+000
       0.0000000000E+000       2.3725511815E-001       0.0000000000E+000       1.6746253668E+001       0.0000000000E+000       9.9999999878E-001       1.5999982205E+000       1.0000000000E+000       6.6666666667E-002       3.6979054802E+001       1.0000000000E-003       0.0000000000E+000       1.0000000000E+000       0.0000000000E+000       2.7777777791E-003       4.3267688399E-002       8.6953103861E-004       1.0000000035E+000
       0.0000000000E+000       2.4618865751E-001       0.0000000000E+000       1.6651565355E+001       0.0000000000E+000       9.9999999878E-001       1.6358408891E+000       1.0000000000E+000       6.6666666667E-002       3.8569156139E+001       1.0000000000E-003       0.0000000000E+000       1.0000000000E+000       0.0000000000E+000       2.7777777791E-003       4.2413188486E-002       8.6953103861E-004       1.0000000035E+000
       0.0000000000E+000       2.5497348552E-001       0.0000000000E+000       1.6553168453E+001       0.0000000000E+000       9.9999999878E-001       1.6717729574E+000       1.0000000000E+000       6.6666666667E-002       4.0252755563E+001       1.0000000000E-003       0.0000000000E+000       1.0000000000E+000       0.0000000000E+000       2.7777777791E-003       4.1531888538E-002       8.6953103861E-004       1.0000000035E+000
       0.0000000000E+000       2.6360258909E-001       0.0000000000E+000       1.6451118520E+001       0.0000000000E+000       9.9999999878E-001       1.7076596840E+000       1.0000000000E+000       6.6666666667E-002       4.2034527984E+001       1.0000000000E-003       0.0000000000E+000       1.0000000000E+000       0.0000000000E+000       2.7777777791E-003       4.0625166164E-002       8.6953103861E-004       1.0000000035E+000
       0.0000000000E+000       2.7206958327E-001       0.0000000000E+000       1.6345471460E+001       0.0000000000E+000       9.9999999878E-001       1.7433695291E+000       1.0000000000E+000       6.6666666667E-002       4.3919675558E+001       1.0000000000E-003       0.0000000000E+000       1.0000000000E+000       0.0000000000E+000       2.7777777791E-003       3.9694499264E-002       8.6953103861E-004       1.0000000035E+000
       0.0000000000E+000       2.8036871763E-001       0.0000000000E+000       1.6236282637E+001       0.0000000000E+000       9.9999999878E-001       1.7787746137E+000       1.0000000000E+000       6.6666666667E-002       4.5913975944E+001       1.0000000000E-003       0.0000000000E+000       1.0000000000E+000       0.0000000000E+000       2.7777777791E-003       3.8741463293E-002       8.6953103861E-004       1.0000000035E+000
       0.0000000000E+000       2.8849487814E-001       0.0000000000E+000       1.6123606008E+001       0.0000000000E+000       9.9999999878E-001       1.8137510421E+000       1.0000000000E+000       6.6666666667E-002       4.8023833911E+001       1.0000000000E-003       0.0000000000E+000       1.0000000000E+000       0.0000000000E+000       2.7777777791E-003       3.7767726864E-002       8.6953103861E-004       1.0000000035E+000
       0.0000000000E+000       2.9644358439E-001       0.0000000000E+000       1.6007493283E+001       0.0000000000E+000       9.9999999878E-001       1.8481790922E+000       1.0000000000E+000       6.6666666667E-002       5.0256336988E+001       1.0000000000E-003       0.0000000000E+000       1.0000000000E+000       0.0000000000E+000       2.7777777791E-003       3.6775045755E-002       8.6953103861E-004       1.0000000035E+000
       0.0000000000E+000       3.0421098279E-001       0.0000000000E+000       1.5887993106E+001       0.0000000000E+000       9.9999999878E-001       1.8819432795E+000       1.0000000000E+000       6.6666666667E-002       5.2619316006E+001       1.0000000000E-003       0.0000000000E+000       1.0000000000E+000       0.0000000000E+000       2.7777777791E-003       3.5765255469E-002       8.6953103861E-004       1.0000000035E+000
       0.0000000000E+000       3.1179383578E-001       0.0000000000E+000       1.5765150264E+001       0.0000000000E+000       9.9999999878E-001       1.9149323021E+000       1.0000000000E+000       6.6666666667E-002       5.5121411440E+001       1.0000000000E-003       0.0000000000E+000       1.0000000000E+000       0.0000000000E+000       2.7777777791E-003       3.4740262488E-002       8.6953103861E-004       1.0000000035E+000
       0.0000000000E+000       3.1918950757E-001       0.0000000000E+000       1.5639004922E+001       0.0000000000E+000       9.9999999878E-001       1.9470388736E+000       1.0000000000E+000       6.6666666667E-002       5.7772146597E+001       1.0000000000E-003       0.0000000000E+000       1.0000000000E+000       0.0000000000E+000       2.7777777791E-003       3.3702034428E-002       8.6953103861E-004       1.0000000035E+000
       0.0000000000E+000       3.2639594666E-001       0.0000000000E+000       1.5509591886E+001       0.0000000000E+000       9.9999999878E-001       1.9781594530E+000       1.0000000000E+000       6.6666666667E-002       6.0582008811E+001       1.0000000000E-003       0.0000000000E+000       1.0000000000E+000       0.0000000000E+000       2.7777777791E-003       3.2652589305E-002       8.6953103861E-004       1.0000000035E+000
       0.0000000000E+000       3.3341166559E-001       0.0000000000E+000       1.5376939890E+001       0.0000000000E+000       9.9999999878E-001       2.0081938788E+000       1.0000000000E+000       6.6666666667E-002       6.3562539933E+001       1.0000000000E-003       0.0000000000E+000       1.0000000000E+000       0.0000000000E+000       2.7777777791E-003       3.1593984144E-002       8.6953103861E-004       1.0000000035E+000
       0.0000000000E+000       3.4023571818E-001       0.0000000000E+000       1.5241070893E+001       0.0000000000E+000       9.9999999878E-001       2.0370449142E+000       1.0000000000E+000       6.6666666667E-002       6.6726437589E+001       1.0000000000E-003       0.0000000000E+000       1.0000000000E+000       0.0000000000E+000       2.7777777791E-003       3.0528303141E-002       8.6953103861E-004       1.0000000035E+000
       0.0000000000E+000       3.4686767480E-001       0.0000000000E+000       1.5101999407E+001       0.0000000000E+000       9.9999999878E-001       2.0646177104E+000       1.0000000000E+000       6.6666666667E-002       7.0087668801E+001       1.0000000000E-003       0.0000000000E+000       1.0000000000E+000       0.0000000000E+000       2.7777777791E-003       2.9457645627E-002       8.6953103861E-004       1.0000000035E+000
       0.0000000000E+000       3.5330759591E-001       0.0000000000E+000       1.4959731825E+001       0.0000000000E+000       9.9999999878E-001       2.0908191917E+000       1.0000000000E+000       6.6666666667E-002       7.3661597824E+001       1.0000000000E-003       0.0000000000E+000       1.0000000000E+000       0.0000000000E+000       2.7777777791E-003       2.8384114022E-002       8.6953103861E-004       1.0000000035E+000
       0.0000000000E+000       3.5955600420E-001       0.0000000000E+000       1.4814265754E+001       0.0000000000E+000       9.9999999878E-001       2.1155573683E+000       1.0000000000E+000       6.6666666667E-002       7.7465130252E+001       1.0000000000E-003       0.0000000000E+000       1.0000000000E+000       0.0000000000E+000       2.7777777791E-003       2.7309801989E-002       8.6953103861E-004       1.0000000035E+000
       0.0000000000E+000       3.6561385588E-001       0.0000000000E+000       1.4665589349E+001       0.0000000000E+000       9.9999999878E-001       2.1387405773E+000       1.0000000000E+000       6.6666666667E-002       8.1516875725E+001       1.0000000000E-003       0.0000000000E+000       1.0000000000E+000       0.0000000000E+000       2.7777777791E-003       2.6236782977E-002       8.6953103861E-004       1.0000000035E+000
       0.0000000000E+000       3.7148251118E-001       0.0000000000E+000       1.4513680638E+001       0.0000000000E+000       9.9999999878E-001       2.1602766542E+000       1.0000000000E+000       6.6666666667E-002       8.5837331896E+001       1.0000000000E-003       0.0000000000E+000       1.0000000000E+000       0.0000000000E+000       2.7777777791E-003       2.5167099285E-002       8.6953103861E-004       1.0000000035E+000
       0.0000000000E+000       3.7716370456E-001       0.0000000000E+000       1.4358506825E+001       0.0000000000E+000       9.9999999878E-001       2.1800720330E+000       1.0000000000E+000       6.6666666667E-002       9.0449092670E+001       1.0000000000E-003       0.0000000000E+000       1.0000000000E+000       0.0000000000E+000       2.7777777791E-003       2.4102751820E-002       8.6953103861E-004       1.0000000035E+000
       0.0000000000E+000       3.8265951477E-001       0.0000000000E+000       1.4200023571E+001       0.0000000000E+000       9.9999999878E-001       2.1980307742E+000       1.0000000000E+000       6.6666666667E-002       9.5377084172E+001       1.0000000000E-003       0.0000000000E+000       1.0000000000E+000       0.0000000000E+000       2.7777777791E-003       2.3045690622E-002       8.6953103861E-004       1.0000000035E+000
       0.0000000000E+000       3.8797233517E-001       0.0000000000E+000       1.4038174242E+001       0.0000000000E+000       9.9999999878E-001       2.2140535170E+000       1.0000000000E+000       6.6666666667E-002       1.0064883236E+002       1.0000000000E-003       0.0000000000E+000       1.0000000000E+000       0.0000000000E+000       2.7777777791E-003       2.1997806284E-002       8.6953103861E-004       1.0000000035E+000
       0.0000000000E+000       3.9310484436E-001       0.0000000000E+000       1.3872889111E+001       0.0000000000E+000       9.9999999878E-001       2.2280363493E+000       1.0000000000E+000       6.6666666667E-002       1.0629476685E+002       1.0000000000E-003       0.0000000000E+000       1.0000000000E+000       0.0000000000E+000       2.7777777791E-003       2.0960922305E-002       8.6953103861E-004       1.0000000035E+000
       0.0000000000E+000       3.9805997742E-001       0.0000000000E+000       1.3704084505E+001       0.0000000000E+000       9.9999999878E-001       2.2398695918E+000       1.0000000000E+000       6.6666666667E-002       1.1234856599E+002       1.0000000000E-003       0.0000000000E+000       1.0000000000E+000       0.0000000000E+000       2.7777777791E-003       1.9936788442E-002       8.6953103861E-004       1.0000000035E+000
       0.0000000000E+000       4.0284089799E-001       0.0000000000E+000       1.3531661899E+001       0.0000000000E+000       9.9999999878E-001       2.2494364881E+000       1.0000000000E+000       6.6666666667E-002       1.1884754933E+002       1.0000000000E-003       0.0000000000E+000       1.0000000000E+000       0.0000000000E+000       2.7777777791E-003       1.8927075071E-002       8.6953103861E-004       1.0000000035E+000
       0.0000000000E+000       4.0745097118E-001       0.0000000000E+000       1.3355506923E+001       0.0000000000E+000       9.9999999878E-001       2.2566117941E+000       1.0000000000E+000       6.6666666667E-002       1.2583312406E+002       1.0000000000E-003       0.0000000000E+000       1.0000000000E+000       0.0000000000E+000       2.7777777791E-003       1.7933368587E-002       8.6953103861E-004       1.0000000035E+000
       0.0000000000E+000       4.1189373758E-001       0.0000000000E+000       1.3175488306E+001       0.0000000000E+000       9.9999999878E-001       2.2612602596E+000       1.0000000000E+000       6.6666666667E-002       1.3335129337E+002       1.0000000000E-003       0.0000000000E+000       1.0000000000E+000       0.0000000000E+000       2.7777777791E-003       1.6957167812E-002       8.6953103861E-004       1.0000000035E+000
       0.0000000000E+000       4.1617288839E-001       0.0000000000E+000       1.2991456712E+001       0.0000000000E+000       9.9999999878E-001       2.2632349966E+000       1.0000000000E+000       6.6666666667E-002       1.4145323564E+002       1.0000000000E-003       0.0000000000E+000       1.0000000000E+000       0.0000000000E+000       2.7777777791E-003       1.5999881419E-002       8.6953103861E-004       1.0000000035E+000
       0.0000000000E+000       4.2029224178E-001       0.0000000000E+000       1.2803243492E+001       0.0000000000E+000       9.9999999878E-001       2.2623757325E+000       1.0000000000E+000       6.6666666667E-002       1.5019596478E+002       1.0000000000E-003       0.0000000000E+000       1.0000000000E+000       0.0000000000E+000       2.7777777791E-003       1.5062826327E-002       8.6953103861E-004       1.0000000035E+000
       0.0000000000E+000       4.2425572057E-001       0.0000000000E+000       1.2610659326E+001       0.0000000000E+000       9.9999999878E-001       2.2585069479E+000       1.0000000000E+000       6.6666666667E-002       1.5964308352E+002       1.0000000000E-003       0.0000000000E+000       1.0000000000E+000       0.0000000000E+000       2.7777777791E-003       1.4147227039E-002       8.6953103861E-004       1.0000000035E+000
       0.0000000000E+000       4.2806733114E-001       0.0000000000E+000       1.2413492758E+001       0.0000000000E+000       9.9999999878E-001       2.2514359117E+000       1.0000000000E+000       6.6666666667E-002       1.6986564346E+002       1.0000000000E-003       0.0000000000E+000       1.0000000000E+000       0.0000000000E+000       2.7777777791E-003       1.3254215896E-002       8.6953103861E-004       1.0000000035E+000
       0.0000000000E+000       4.3173114379E-001       0.0000000000E+000       1.2211508636E+001       0.0000000000E+000       9.9999999878E-001       2.2409506337E+000       1.0000000000E+000       6.6666666667E-002       1.8094312747E+002       1.0000000000E-003       0.0000000000E+000       1.0000000000E+000       0.0000000000E+000       2.7777777791E-003       1.2384834203E-002       8.6953103861E-004       1.0000000035E+000
       0.0000000000E+000       4.3525127437E-001       0.0000000000E+000       1.2004446446E+001       0.0000000000E+000       9.9999999878E-001       2.2268177760E+000       1.0000000000E+000       6.6666666667E-002       1.9296457320E+002       1.0000000000E-003       0.0000000000E+000       1.0000000000E+000       0.0000000000E+000       2.7777777791E-003       1.1540034209E-002       8.6953103861E-004       1.0000000035E+000
       0.0000000000E+000       4.3863186730E-001       0.0000000000E+000       1.1792018586E+001       0.0000000000E+000       9.9999999878E-001       2.2087805906E+000       1.0000000000E+000       6.6666666667E-002       2.0602985936E+002       1.0000000000E-003       0.0000000000E+000       1.0000000000E+000       0.0000000000E+000       2.7777777791E-003       1.0720681931E-002       8.6953103861E-004       1.0000000035E+000
       0.0000000000E+000       4.4187707994E-001       0.0000000000E+000       1.1573908598E+001       0.0000000000E+000       9.9999999878E-001       2.1865569930E+000       1.0000000000E+000       6.6666666667E-002       2.2025118093E+002       1.0000000000E-003       0.0000000000E+000       1.0000000000E+000       0.0000000000E+000       2.7777777791E-003       9.9275608137E-003       8.6953103861E-004       1.0000000035E+000
       0.0000000000E+000       4.4499106819E-001       0.0000000000E+000       1.1349769427E+001       0.0000000000E+000       9.9999999878E-001       2.1598379346E+000       1.0000000000E+000       6.6666666667E-002       2.3575474577E+002       1.0000000000E-003       0.0000000000E+000       1.0000000000E+000       0.0000000000E+000       2.7777777791E-003       9.1613762752E-003       8.6953103861E-004       1.0000000035E+000
       0.0000000000E+000       4.4797797343E-001       0.0000000000E+000       1.1119221804E+001       0.0000000000E+000       9.9999999878E-001       2.1282863236E+000       1.0000000000E+000       6.6666666667E-002       2.5268273340E+002       1.0000000000E-003       0.0000000000E+000       1.0000000000E+000       0.0000000000E+000       2.7777777791E-003       8.4227612033E-003       8.6953103861E-004       1.0000000035E+000
       0.0000000000E+000       4.5084191063E-001       0.0000000000E+000       1.0881852903E+001       0.0000000000E+000       9.9999999878E-001       2.0915368567E+000       1.0000000000E+000       6.6666666667E-002       2.7119557047E+002       1.0000000000E-003       0.0000000000E+000       1.0000000000E+000       0.0000000000E+000       2.7777777791E-003       7.7122825167E-003       8.6953103861E-004       1.0000000035E+000
       0.0000000000E+000       4.5358695766E-001       0.0000000000E+000       1.0637215493E+001       0.0000000000E+000       9.9999999878E-001       2.0491972857E+000       1.0000000000E+000       6.6666666667E-002       2.9147459761E+002       1.0000000000E-003       0.0000000000E+000       1.0000000000E+000       0.0000000000E+000       2.7777777791E-003       7.0304489740E-003       8.6953103861E-004       1.0000000035E+000
       0.0000000000E+000       4.5621714576E-001       0.0000000000E+000       1.0384827912E+001       0.0000000000E+000       9.9999999878E-001       2.0008518628E+000       1.0000000000E+000       6.6666666667E-002       3.1372523613E+002       1.0000000000E-003       0.0000000000E+000       1.0000000000E+000       0.0000000000E+000       2.7777777791E-003       6.3777204775E-003       8.6953103861E-004       1.0000000035E+000
       0.0000000000E+000       4.5873645099E-001       0.0000000000E+000       1.0124175349E+001       0.0000000000E+000       9.9999999878E-001       1.9460680037E+000       1.0000000000E+000       6.6666666667E-002       3.3818081711E+002       1.0000000000E-003       0.0000000000E+000       1.0000000000E+000       0.0000000000E+000       2.7777777791E-003       5.7545191958E-003       8.6953103861E-004       1.0000000035E+000
       0.0000000000E+000       4.6114878677E-001       0.0000000000E+000       9.8547131484E+000       0.0000000000E+000       9.9999999878E-001       1.8844075882E+000       1.0000000000E+000       6.6666666667E-002       3.6510732510E+002       1.0000000000E-003       0.0000000000E+000       1.0000000000E+000       0.0000000000E+000       2.7777777791E-003       5.1612428966E-003       8.6953103861E-004       1.0000000035E+000
       0.0000000000E+000       4.6345799731E-001       0.0000000000E+000       9.5758731172E+000       0.0000000000E+000       9.9999999878E-001       1.8154447878E+000       1.0000000000E+000       6.6666666667E-002       3.9480945682E+002       1.0000000000E-003       0.0000000000E+000       1.0000000000E+000       0.0000000000E+000       2.7777777791E-003       4.5982809086E-003       8.6953103861E-004       1.0000000035E+000