 VARIABLES ="X","Y","U","W","C","T","k","eps", "v2","omega","nuSA","yplus","RHO","Pe","mu","mut"
 ZONE I=            98  J=           200  F=POINT 
       0.0000000000E+000      -4.6333968368E-003       0.0000000000E+000       1.7845693430E+001       0.0000000000E+000       9.9999999878E-001       1.0807605134E+000       1.0000000000E+000       6.6666666667E-002       2.0125040076E+001       1.0000000000E-003       0.0000000000E+000       1.0000000000E+000       0.0000000000E+000       2.7777777791E-003       5.3702278837E-002
       0.0000000000E+000       4.6333968368E-003       0.0000000000E+000       1.7845693430E+001       0.0000000000E+000       9.9999999878E-001       1.0807605134E+000       1.0000000000E+000       6.6666666667E-002       2.0125040076E+001       1.0000000000E-003       0.0000000000E+000       1.0000000000E+000       0.0000000000E+000       2.7777777791E-003       5.3702278837E-002
       0.0000000000E+000       1.3960125430E-002       0.0000000000E+000       1.7842632129E+001       0.0000000000E+000       9.9999999878E-001       1.0824930377E+000       1.0000000000E+000       6.6666666667E-002       2.0168267851E+001       1.0000000000E-003       0.0000000000E+000       1.0000000000E+000       0.0000000000E+000       2.7777777791E-003       5.3673079220E-002
       0.0000000000E+000       2.3401918894E-002       0.0000000000E+000       1.7836388944E+001       0.0000000000E+000       9.9999999878E-001       1.0860266472E+000       1.0000000000E+000       6.6666666667E-002       2.0256950444E+001       1.0000000000E-003       0.0000000000E+000       1.0000000000E+000       0.0000000000E+000       2.7777777791E-003       5.3612544027E-002
       0.0000000000E+000       3.2948914513E-002       0.0000000000E+000       1.7826849193E+001       0.0000000000E+000       9.9999999878E-001       1.0914183439E+000       1.0000000000E+000       6.6666666667E-002       2.0393125964E+001       1.0000000000E-003       0.0000000000E+000       1.0000000000E+000       0.0000000000E+000       2.7777777791E-003       5.3518933107E-002
       0.0000000000E+000       4.2590763245E-002       0.0000000000E+000       1.7813904581E+001       0.0000000000E+000       9.9999999878E-001       1.0987129862E+000       1.0000000000E+000       6.6666666667E-002       2.0578659291E+001       1.0000000000E-003       0.0000000000E+000       1.0000000000E+000       0.0000000000E+000       2.7777777791E-003       5.3390892531E-002
       0.0000000000E+000       5.2316670463E-002       0.0000000000E+000       1.7797453708E+001       0.0000000000E+000       9.9999999878E-001       1.1079428027E+000       1.0000000000E+000       6.6666666667E-002       2.0815270910E+001       1.0000000000E-003       0.0000000000E+000       1.0000000000E+000       0.0000000000E+000       2.7777777791E-003       5.3227402509E-002
       0.0000000000E+000       6.2115441043E-002       0.0000000000E+000       1.7777402584E+001       0.0000000000E+000       9.9999999878E-001       1.1191269825E+000       1.0000000000E+000       6.6666666667E-002       2.1104564033E+001       1.0000000000E-003       0.0000000000E+000       1.0000000000E+000       0.0000000000E+000       2.7777777791E-003       5.3027723346E-002
       0.0000000000E+000       7.1975528421E-002       0.0000000000E+000       1.7753665126E+001       0.0000000000E+000       9.9999999878E-001       1.1322713461E+000       1.0000000000E+000       6.6666666667E-002       2.1448048370E+001       1.0000000000E-003       0.0000000000E+000       1.0000000000E+000       0.0000000000E+000       2.7777777791E-003       5.2791346188E-002
       0.0000000000E+000       8.1885087210E-002       0.0000000000E+000       1.7726163617E+001       0.0000000000E+000       9.9999999878E-001       1.1473681156E+000       1.0000000000E+000       6.6666666667E-002       2.1847160518E+001       1.0000000000E-003       0.0000000000E+000       1.0000000000E+000       0.0000000000E+000       2.7777777791E-003       5.2517951477E-002
       0.0000000000E+000       9.1832028879E-002       0.0000000000E+000       1.7694829112E+001       0.0000000000E+000       9.9999999878E-001       1.1643958088E+000       1.0000000000E+000       6.6666666667E-002       2.2303281839E+001       1.0000000000E-003       0.0000000000E+000       1.0000000000E+000       0.0000000000E+000       2.7777777791E-003       5.2207375472E-002
       0.0000000000E+000       1.0180407995E-001       0.0000000000E+000       1.7659601773E+001       0.0000000000E+000       9.9999999878E-001       1.1833192833E+000       1.0000000000E+000       6.6666666667E-002       2.2817755066E+001       1.0000000000E-003       0.0000000000E+000       1.0000000000E+000       0.0000000000E+000       2.7777777791E-003       5.1859583919E-002
       0.0000000000E+000       1.1178884212E-001       0.0000000000E+000       1.7620431119E+001       0.0000000000E+000       9.9999999878E-001       1.2040899466E+000       1.0000000000E+000       6.6666666667E-002       2.3391900855E+001       1.0000000000E-003       0.0000000000E+000       1.0000000000E+000       0.0000000000E+000       2.7777777791E-003       5.1474651612E-002
       0.0000000000E+000       1.2177385375E-001       0.0000000000E+000       1.7577276190E+001       0.0000000000E+000       9.9999999878E-001       1.2266461466E+000       1.0000000000E+000       6.6666666667E-002       2.4027035303E+001       1.0000000000E-003       0.0000000000E+000       1.0000000000E+000       0.0000000000E+000       2.7777777791E-003       5.1052746689E-002
       0.0000000000E+000       1.3174665193E-001       0.0000000000E+000       1.7530105599E+001       0.0000000000E+000       9.9999999878E-001       1.2509137420E+000       1.0000000000E+000       6.6666666667E-002       2.4724489141E+001       1.0000000000E-003       0.0000000000E+000       1.0000000000E+000       0.0000000000E+000       2.7777777791E-003       5.0594118863E-002
       0.0000000000E+000       1.4169483466E-001       0.0000000000E+000       1.7478897492E+001       0.0000000000E+000       9.9999999878E-001       1.2768068480E+000       1.0000000000E+000       6.6666666667E-002       2.5485629042E+001       1.0000000000E-003       0.0000000000E+000       1.0000000000E+000       0.0000000000E+000       2.7777777791E-003       5.0099090995E-002
       0.0000000000E+000       1.5160612229E-001       0.0000000000E+000       1.7423639393E+001       0.0000000000E+000       9.9999999878E-001       1.3042287418E+000       1.0000000000E+000       6.6666666667E-002       2.6311881253E+001       1.0000000000E-003       0.0000000000E+000       1.0000000000E+000       0.0000000000E+000       2.7777777791E-003       4.9568053677E-002
       0.0000000000E+000       1.6146841776E-001       0.0000000000E+000       1.7364327937E+001       0.0000000000E+000       9.9999999878E-001       1.3330729077E+000       1.0000000000E+000       6.6666666667E-002       2.7204757572E+001       1.0000000000E-003       0.0000000000E+000       1.0000000000E+000       0.0000000000E+000       2.7777777791E-003       4.9001462505E-002
       0.0000000000E+000       1.7126986487E-001       0.0000000000E+000       1.7300968512E+001       0.0000000000E+000       9.9999999878E-001       1.3632241938E+000       1.0000000000E+000       6.6666666667E-002       2.8165883550E+001       1.0000000000E-003       0.0000000000E+000       1.0000000000E+000       0.0000000000E+000       2.7777777791E-003       4.8399837764E-002
       0.0000000000E+000       1.8099890407E-001       0.0000000000E+000       1.7233574786E+001       0.0000000000E+000       9.9999999878E-001       1.3945600527E+000       1.0000000000E+000       6.6666666667E-002       2.9197028733E+001       1.0000000000E-003       0.0000000000E+000       1.0000000000E+000       0.0000000000E+000       2.7777777791E-003       4.7763766168E-002
       0.0000000000E+000       1.9064432522E-001       0.0000000000E+000       1.7162168150E+001       0.0000000000E+000       9.9999999878E-001       1.4269518313E+000       1.0000000000E+000       6.6666666667E-002       3.0300138726E+001       1.0000000000E-003       0.0000000000E+000       1.0000000000E+000       0.0000000000E+000       2.7777777791E-003       4.7093904246E-002
       0.0000000000E+000       2.0019531677E-001       0.0000000000E+000       1.7086777082E+001       0.0000000000E+000       9.9999999878E-001       1.4602660799E+000       1.0000000000E+000       6.6666666667E-002       3.1477368846E+001       1.0000000000E-003       0.0000000000E+000       1.0000000000E+000       0.0000000000E+000       2.7777777791E-003       4.6390982919E-002
       0.0000000000E+000       2.0964151104E-001       0.0000000000E+000       1.7007436428E+001       0.0000000000E+000       9.9999999878E-001       1.4943658473E+000       1.0000000000E+000       6.6666666667E-002       3.2731119155E+001       1.0000000000E-003       0.0000000000E+000       1.0000000000E+000       0.0000000000E+000       2.7777777791E-003       4.5655812769E-002
       0.0000000000E+000       2.1897302515E-001       0.0000000000E+000       1.6924186631E+001       0.0000000000E+000       9.9999999878E-001       1.5291119335E+000       1.0000000000E+000       6.6666666667E-002       3.4064070760E+001       1.0000000000E-003       0.0000000000E+000       1.0000000000E+000       0.0000000000E+000       2.7777777791E-003       4.4889289503E-002
       0.0000000000E+000       2.2818049727E-001       0.0000000000E+000       1.6837072909E+001       0.0000000000E+000       9.9999999878E-001       1.5643640738E+000       1.0000000000E+000       6.6666666667E-002       3.5479223273E+001       1.0000000000E-003       0.0000000000E+000       1.0000000000E+000       0.0000000000E+000       2.7777777791E-003       4.4092399158E-002
       0.0000000000E+000       2.3725511815E-001       0.0000000000E+000       1.6746144399E+001       0.0000000000E+000       9.9999999878E-001       1.5999820327E+000       1.0000000000E+000       6.6666666667E-002       3.6979933465E+001       1.0000000000E-003       0.0000000000E+000       1.0000000000E+000       0.0000000000E+000       2.7777777791E-003       4.3266222606E-002
       0.0000000000E+000       2.4618865751E-001       0.0000000000E+000       1.6651453269E+001       0.0000000000E+000       9.9999999878E-001       1.6358265883E+000       1.0000000000E+000       6.6666666667E-002       3.8569955214E+001       1.0000000000E-003       0.0000000000E+000       1.0000000000E+000       0.0000000000E+000       2.7777777791E-003       4.2411939028E-002
       0.0000000000E+000       2.5497348552E-001       0.0000000000E+000       1.6553053826E+001       0.0000000000E+000       9.9999999878E-001       1.6717603953E+000       1.0000000000E+000       6.6666666667E-002       4.0253480954E+001       1.0000000000E-003       0.0000000000E+000       1.0000000000E+000       0.0000000000E+000       2.7777777791E-003       4.1530828050E-002
       0.0000000000E+000       2.6360258909E-001       0.0000000000E+000       1.6451001617E+001       0.0000000000E+000       9.9999999878E-001       1.7076487173E+000       1.0000000000E+000       6.6666666667E-002       4.2035184932E+001       1.0000000000E-003       0.0000000000E+000       1.0000000000E+000       0.0000000000E+000       2.7777777791E-003       4.0624270373E-002
       0.0000000000E+000       2.7206958327E-001       0.0000000000E+000       1.6345352530E+001       0.0000000000E+000       9.9999999878E-001       1.7433600217E+000       1.0000000000E+000       6.6666666667E-002       4.3920268690E+001       1.0000000000E-003       0.0000000000E+000       1.0000000000E+000       0.0000000000E+000       2.7777777791E-003       3.9693746743E-002
       0.0000000000E+000       2.8036871763E-001       0.0000000000E+000       1.6236161912E+001       0.0000000000E+000       9.9999999878E-001       1.7787664385E+000       1.0000000000E+000       6.6666666667E-002       4.5914509280E+001       1.0000000000E-003       0.0000000000E+000       1.0000000000E+000       0.0000000000E+000       2.7777777791E-003       3.8740835240E-002
       0.0000000000E+000       2.8849487814E-001       0.0000000000E+000       1.6123483707E+001       0.0000000000E+000       9.9999999878E-001       1.8137440821E+000       1.0000000000E+000       6.6666666667E-002       4.8024310822E+001       1.0000000000E-003       0.0000000000E+000       1.0000000000E+000       0.0000000000E+000       2.7777777791E-003       3.7767206892E-002
       0.0000000000E+000       2.9644358439E-001       0.0000000000E+000       1.6007369611E+001       0.0000000000E+000       9.9999999878E-001       1.8481732406E+000       1.0000000000E+000       6.6666666667E-002       5.0256760131E+001       1.0000000000E-003       0.0000000000E+000       1.0000000000E+000       0.0000000000E+000       2.7777777791E-003       3.6774619701E-002
       0.0000000000E+000       3.0421098279E-001       0.0000000000E+000       1.5887868256E+001       0.0000000000E+000       9.9999999878E-001       1.8819384403E+000       1.0000000000E+000       6.6666666667E-002       5.2619687220E+001       1.0000000000E-003       0.0000000000E+000       1.0000000000E+000       0.0000000000E+000       2.7777777791E-003       3.5764911203E-002
       0.0000000000E+000       3.1179383578E-001       0.0000000000E+000       1.5765024417E+001       0.0000000000E+000       9.9999999878E-001       1.9149283897E+000       1.0000000000E+000       6.6666666667E-002       5.5121731607E+001       1.0000000000E-003       0.0000000000E+000       1.0000000000E+000       0.0000000000E+000       2.7777777791E-003       3.4739989738E-002
       0.0000000000E+000       3.1918950757E-001       0.0000000000E+000       1.5638878252E+001       0.0000000000E+000       9.9999999878E-001       1.9470358125E+000       1.0000000000E+000       6.6666666667E-002       5.7772415457E+001       1.0000000000E-003       0.0000000000E+000       1.0000000000E+000       0.0000000000E+000       2.7777777791E-003       3.3701824613E-002
       0.0000000000E+000       3.2639594666E-001       0.0000000000E+000       1.5509464562E+001       0.0000000000E+000       9.9999999878E-001       1.9781571776E+000       1.0000000000E+000       6.6666666667E-002       6.0582224720E+001       1.0000000000E-003       0.0000000000E+000       1.0000000000E+000       0.0000000000E+000       2.7777777791E-003       3.2652435387E-002
       0.0000000000E+000       3.3341166559E-001       0.0000000000E+000       1.5376812076E+001       0.0000000000E+000       9.9999999878E-001       2.0081923325E+000       1.0000000000E+000       6.6666666667E-002       6.3562699546E+001       1.0000000000E-003       0.0000000000E+000       1.0000000000E+000       0.0000000000E+000       2.7777777791E-003       3.1593880492E-002
       0.0000000000E+000       3.4023571818E-001       0.0000000000E+000       1.5240942755E+001       0.0000000000E+000       9.9999999878E-001       2.0370440492E+000       1.0000000000E+000       6.6666666667E-002       6.6726535436E+001       1.0000000000E-003       0.0000000000E+000       1.0000000000E+000       0.0000000000E+000       2.7777777791E-003       3.0528245421E-002
       0.0000000000E+000       3.4686767480E-001       0.0000000000E+000       1.5101871116E+001       0.0000000000E+000       9.9999999878E-001       2.0646174866E+000       1.0000000000E+000       6.6666666667E-002       7.0087696717E+001       1.0000000000E-003       0.0000000000E+000       1.0000000000E+000       0.0000000000E+000       2.7777777791E-003       2.9457630712E-002
       0.0000000000E+000       3.5330759591E-001       0.0000000000E+000       1.4959603559E+001       0.0000000000E+000       9.9999999878E-001       2.0908195766E+000       1.0000000000E+000       6.6666666667E-002       7.3661544178E+001       1.0000000000E-003       0.0000000000E+000       1.0000000000E+000       0.0000000000E+000       2.7777777791E-003       2.8384139929E-002
       0.0000000000E+000       3.5955600420E-001       0.0000000000E+000       1.4814137706E+001       0.0000000000E+000       9.9999999878E-001       2.1155583359E+000       1.0000000000E+000       6.6666666667E-002       7.7464978891E+001       1.0000000000E-003       0.0000000000E+000       1.0000000000E+000       0.0000000000E+000       2.7777777791E-003       2.7309867852E-002
       0.0000000000E+000       3.6561385588E-001       0.0000000000E+000       1.4665461734E+001       0.0000000000E+000       9.9999999878E-001       2.1387421078E+000       1.0000000000E+000       6.6666666667E-002       8.1516604509E+001       1.0000000000E-003       0.0000000000E+000       1.0000000000E+000       0.0000000000E+000       2.7777777791E-003       2.6236889054E-002
       0.0000000000E+000       3.7148251118E-001       0.0000000000E+000       1.4513553700E+001       0.0000000000E+000       9.9999999878E-001       2.1602787331E+000       1.0000000000E+000       6.6666666667E-002       8.5836910648E+001       1.0000000000E-003       0.0000000000E+000       1.0000000000E+000       0.0000000000E+000       2.7777777791E-003       2.5167247021E-002
       0.0000000000E+000       3.7716370456E-001       0.0000000000E+000       1.4358380848E+001       0.0000000000E+000       9.9999999878E-001       2.1800746505E+000       1.0000000000E+000       6.6666666667E-002       9.0448480285E+001       1.0000000000E-003       0.0000000000E+000       1.0000000000E+000       0.0000000000E+000       2.7777777791E-003       2.4102943956E-002
       0.0000000000E+000       3.8265951477E-001       0.0000000000E+000       1.4199898897E+001       0.0000000000E+000       9.9999999878E-001       2.1980339251E+000       1.0000000000E+000       6.6666666667E-002       9.5376224472E+001       1.0000000000E-003       0.0000000000E+000       1.0000000000E+000       0.0000000000E+000       2.7777777791E-003       2.3045931395E-002
       0.0000000000E+000       3.8797233517E-001       0.0000000000E+000       1.4038051283E+001       0.0000000000E+000       9.9999999878E-001       2.2140572002E+000       1.0000000000E+000       6.6666666667E-002       1.0064764811E+002       1.0000000000E-003       0.0000000000E+000       1.0000000000E+000       0.0000000000E+000       2.7777777791E-003       2.1998101719E-002
       0.0000000000E+000       3.9310484436E-001       0.0000000000E+000       1.3872768379E+001       0.0000000000E+000       9.9999999878E-001       2.2280405683E+000       1.0000000000E+000       6.6666666667E-002       1.0629315100E+002       1.0000000000E-003       0.0000000000E+000       1.0000000000E+000       0.0000000000E+000       2.7777777791E-003       2.0961280649E-002
       0.0000000000E+000       3.9805997742E-001       0.0000000000E+000       1.3703966647E+001       0.0000000000E+000       9.9999999878E-001       2.2398743569E+000       1.0000000000E+000       6.6666666667E-002       1.1234636874E+002       1.0000000000E-003       0.0000000000E+000       1.0000000000E+000       0.0000000000E+000       2.7777777791E-003       1.9937220782E-002
       0.0000000000E+000       4.0284089799E-001       0.0000000000E+000       1.3531547742E+001       0.0000000000E+000       9.9999999878E-001       2.2494418200E+000       1.0000000000E+000       6.6666666667E-002       1.1884455878E+002       1.0000000000E-003       0.0000000000E+000       1.0000000000E+000       0.0000000000E+000       2.7777777791E-003       1.8927596214E-002
       0.0000000000E+000       4.0745097118E-001       0.0000000000E+000       1.3355397546E+001       0.0000000000E+000       9.9999999878E-001       2.2566177332E+000       1.0000000000E+000       6.6666666667E-002       1.2582903699E+002       1.0000000000E-003       0.0000000000E+000       1.0000000000E+000       0.0000000000E+000       2.7777777791E-003       1.7933998287E-002
       0.0000000000E+000       4.1189373758E-001       0.0000000000E+000       1.3175385135E+001       0.0000000000E+000       9.9999999878E-001       2.2612668827E+000       1.0000000000E+000       6.6666666667E-002       1.3334567074E+002       1.0000000000E-003       0.0000000000E+000       1.0000000000E+000       0.0000000000E+000       2.7777777791E-003       1.6957932499E-002
       0.0000000000E+000       4.1617288839E-001       0.0000000000E+000       1.2991361664E+001       0.0000000000E+000       9.9999999878E-001       2.2632424498E+000       1.0000000000E+000       6.6666666667E-002       1.4144543419E+002       1.0000000000E-003       0.0000000000E+000       1.0000000000E+000       0.0000000000E+000       2.7777777791E-003       1.6000816595E-002
       0.0000000000E+000       4.2029224178E-001       0.0000000000E+000       1.2803158271E+001       0.0000000000E+000       9.9999999878E-001       2.2623840746E+000       1.0000000000E+000       6.6666666667E-002       1.5018677866E+002       1.0000000000E-003       0.0000000000E+000       1.0000000000E+000       0.0000000000E+000       2.7777777791E-003       1.5063803190E-002
       0.0000000000E+000       4.2425572057E-001       0.0000000000E+000       1.2610584254E+001       0.0000000000E+000       9.9999999878E-001       2.2585159200E+000       1.0000000000E+000       6.6666666667E-002       1.5963406646E+002       1.0000000000E-003       0.0000000000E+000       1.0000000000E+000       0.0000000000E+000       2.7777777791E-003       1.4148082367E-002
       0.0000000000E+000       4.2806733114E-001       0.0000000000E+000       1.2413427020E+001       0.0000000000E+000       9.9999999878E-001       2.2514452820E+000       1.0000000000E+000       6.6666666667E-002       1.6985731749E+002       1.0000000000E-003       0.0000000000E+000       1.0000000000E+000       0.0000000000E+000       2.7777777791E-003       1.3254920754E-002
       0.0000000000E+000       4.3173114379E-001       0.0000000000E+000       1.2211451165E+001       0.0000000000E+000       9.9999999878E-001       2.2409602512E+000       1.0000000000E+000       6.6666666667E-002       1.8093554719E+002       1.0000000000E-003       0.0000000000E+000       1.0000000000E+000       0.0000000000E+000       2.7777777791E-003       1.2385406222E-002
       0.0000000000E+000       4.3525127437E-001       0.0000000000E+000       1.2004396239E+001       0.0000000000E+000       9.9999999878E-001       2.2268275259E+000       1.0000000000E+000       6.6666666667E-002       1.9295768981E+002       1.0000000000E-003       0.0000000000E+000       1.0000000000E+000       0.0000000000E+000       2.7777777791E-003       1.1540496411E-002
       0.0000000000E+000       4.3863186730E-001       0.0000000000E+000       1.1791974755E+001       0.0000000000E+000       9.9999999878E-001       2.2087903757E+000       1.0000000000E+000       6.6666666667E-002       2.0602361139E+002       1.0000000000E-003       0.0000000000E+000       1.0000000000E+000       0.0000000000E+000       2.7777777791E-003       1.0721054551E-002
       0.0000000000E+000       4.4187707994E-001       0.0000000000E+000       1.1573870364E+001       0.0000000000E+000       9.9999999878E-001       2.1865667284E+000       1.0000000000E+000       6.6666666667E-002       2.2024551027E+002       1.0000000000E-003       0.0000000000E+000       1.0000000000E+000       0.0000000000E+000       2.7777777791E-003       9.9278606246E-003
       0.0000000000E+000       4.4499106819E-001       0.0000000000E+000       1.1349736110E+001       0.0000000000E+000       9.9999999878E-001       2.1598475469E+000       1.0000000000E+000       6.6666666667E-002       2.3574959921E+002       1.0000000000E-003       0.0000000000E+000       1.0000000000E+000       0.0000000000E+000       2.7777777791E-003       9.1616170503E-003
       0.0000000000E+000       4.4797797343E-001       0.0000000000E+000       1.1119192808E+001       0.0000000000E+000       9.9999999878E-001       2.1282957506E+000       1.0000000000E+000       6.6666666667E-002       2.5267806245E+002       1.0000000000E-003       0.0000000000E+000       1.0000000000E+000       0.0000000000E+000       2.7777777791E-003       8.4229542155E-003
       0.0000000000E+000       4.5084191063E-001       0.0000000000E+000       1.0881827710E+001       0.0000000000E+000       9.9999999878E-001       2.0915460463E+000       1.0000000000E+000       6.6666666667E-002       2.7119133104E+002       1.0000000000E-003       0.0000000000E+000       1.0000000000E+000       0.0000000000E+000       2.7777777791E-003       7.7124369685E-003
       0.0000000000E+000       4.5358695766E-001       0.0000000000E+000       1.0637193649E+001       0.0000000000E+000       9.9999999878E-001       2.0492061955E+000       1.0000000000E+000       6.6666666667E-002       2.9147074971E+002       1.0000000000E-003       0.0000000000E+000       1.0000000000E+000       0.0000000000E+000       2.7777777791E-003       7.0305723583E-003
       0.0000000000E+000       4.5621714576E-001       0.0000000000E+000       1.0384809020E+001       0.0000000000E+000       9.9999999878E-001       2.0008604588E+000       1.0000000000E+000       6.6666666667E-002       3.1372174365E+002       1.0000000000E-003       0.0000000000E+000       1.0000000000E+000       0.0000000000E+000       2.7777777791E-003       6.3778188792E-003
       0.0000000000E+000       4.5873645099E-001       0.0000000000E+000       1.0124159062E+001       0.0000000000E+000       9.9999999878E-001       1.9460762593E+000       1.0000000000E+000       6.6666666667E-002       3.3817764755E+002       1.0000000000E-003       0.0000000000E+000       1.0000000000E+000       0.0000000000E+000       2.7777777791E-003       5.7545975438E-003
       0.0000000000E+000       4.6114878677E-001       0.0000000000E+000       9.8546991624E+000       0.0000000000E+000       9.9999999878E-001       1.8844154828E+000       1.0000000000E+000       6.6666666667E-002       3.6510444941E+002       1.0000000000E-003       0.0000000000E+000       1.0000000000E+000       0.0000000000E+000       2.7777777791E-003       5.1613051729E-003
       0.0000000000E+000       4.6345799731E-001       0.0000000000E+000       9.5758611651E+000       0.0000000000E+000       9.9999999878E-001       1.8154523059E+000       1.0000000000E+000       6.6666666667E-002       3.9480684926E+002       1.0000000000E-003       0.0000000000E+000       1.0000000000E+000       0.0000000000E+000       2.7777777791E-003       4.5983303225E-003
       0.0000000000E+000       4.6566785199E-001       0.0000000000E+000       9.2870641355E+000       0.0000000000E+000       9.9999999878E-001       1.7387999739E+000       1.0000000000E+000       6.6666666667E-002       4.2763627701E+002       1.0000000000E-003       0.0000000000E+000       1.0000000000E+000       0.0000000000E+000       2.7777777791E-003       4.0660721926E-003
       0.0000000000E+000       4.6778204052E-001       0.0000000000E+000       8.9877315245E+000       0.0000000000E+000       9.9999999878E-001       1.6541494521E+000       1.0000000000E+000       6.6666666667E-002       4.6400191166E+002       1.0000000000E-003       0.0000000000E+000       1.0000000000E+000       0.0000000000E+000       2.7777777791E-003       3.5649625812E-003
       0.0000000000E+000       4.6980416890E-001       0.0000000000E+000       8.6773173703E+000       0.0000000000E+000       9.9999999878E-001       1.5613231368E+000       1.0000000000E+000       6.6666666667E-002       5.0438638368E+002       1.0000000000E-003       0.0000000000E+000       1.0000000000E+000       0.0000000000E+000       2.7777777791E-003       3.0954902587E-003
       0.0000000000E+000       4.7173775606E-001       0.0000000000E+000       8.3553448557E+000       0.0000000000E+000       9.9999999878E-001       1.4603464145E+000       1.0000000000E+000       6.6666666667E-002       5.4936884751E+002       1.0000000000E-003       0.0000000000E+000       1.0000000000E+000       0.0000000000E+000       2.7777777791E-003       2.6582257468E-003
       0.0000000000E+000       4.7358623122E-001       0.0000000000E+000       8.0214610392E+000       0.0000000000E+000       9.9999999878E-001       1.3515380688E+000       1.0000000000E+000       6.6666666667E-002       5.9965963760E+002       1.0000000000E-003       0.0000000000E+000       1.0000000000E+000       0.0000000000E+000       2.7777777791E-003       2.2538419873E-003
       0.0000000000E+000       4.7535293177E-001       0.0000000000E+000       7.6755113511E+000       0.0000000000E+000       9.9999999878E-001       1.2356162625E+000       1.0000000000E+000       6.6666666667E-002       6.5615293013E+002       1.0000000000E-003       0.0000000000E+000       1.0000000000E+000       0.0000000000E+000       2.7777777791E-003       1.8831223731E-003
       0.0000000000E+000       4.7704110176E-001       0.0000000000E+000       7.3176355515E+000       0.0000000000E+000       9.9999999878E-001       1.1138088121E+000       1.0000000000E+000       6.6666666667E-002       7.2000680896E+002       1.0000000000E-003       0.0000000000E+000       1.0000000000E+000       0.0000000000E+000       2.7777777791E-003       1.5469420548E-003
       0.0000000000E+000       4.7865389090E-001       0.0000000000E+000       6.9483818914E+000       0.0000000000E+000       9.9999999878E-001       9.8794415474E-001       1.0000000000E+000       6.6666666667E-002       7.9276374971E+002       1.0000000000E-003       0.0000000000E+000       1.0000000000E+000       0.0000000000E+000       2.7777777791E-003       1.2462024852E-003
       0.0000000000E+000       4.8019435391E-001       0.0000000000E+000       6.5688268210E+000       0.0000000000E+000       9.9999999878E-001       8.6048473151E-001       1.0000000000E+000       6.6666666667E-002       8.7652830068E+002       1.0000000000E-003       0.0000000000E+000       1.0000000000E+000       0.0000000000E+000       2.7777777791E-003       9.8169646221E-004