 VARIABLES ="X","Y","U","W","P","C","T","k","eps", "v2","omega","nuSA","yplus","RHO","Pe","mu","mut"
 ZONE I=            98  J=            40  F=POINT 
       0.0000000000E+000      -4.6333968368E-003       3.7171814573E-014       1.8881310780E+001      -1.9295701910E-011       0.0000000000E+000       1.0000000014E+000       1.0000000000E-001       1.0000000000E+000       6.6666666667E-002       1.0000000000E-003       4.6493015979E-002       0.0000000000E+000       1.0000000015E+000       0.0000000000E+000       2.7777777806E-003       4.3195810570E-002
       0.0000000000E+000       4.6333968368E-003       3.7171814573E-014       1.8881310780E+001      -1.9295701910E-011       0.0000000000E+000       1.0000000014E+000       1.0000000000E-001       1.0000000000E+000       6.6666666667E-002       1.0000000000E-003       4.6493015979E-002       0.0000000000E+000       1.0000000015E+000       0.0000000000E+000       2.7777777806E-003       4.3195810570E-002
       0.0000000000E+000       1.3960125430E-002       5.5985110131E-014       1.8877552352E+001      -1.9398084643E-011       0.0000000000E+000       1.0000000014E+000       1.0000000000E-001       1.0000000000E+000       6.6666666667E-002       1.0000000000E-003       4.6525756871E-002       0.0000000000E+000       1.0000000015E+000       0.0000000000E+000       2.7777777806E-003       4.3232697732E-002
       0.0000000000E+000       2.3401918894E-002       9.3850855079E-014       1.8869902831E+001      -1.9478808345E-011       0.0000000000E+000       1.0000000014E+000       1.0000000000E-001       1.0000000000E+000       6.6666666667E-002       1.0000000000E-003       4.6592163117E-002       0.0000000000E+000       1.0000000015E+000       0.0000000000E+000       2.7777777806E-003       4.3307491611E-002
       0.0000000000E+000       3.2948914513E-002       1.3217040675E-013       1.8858252596E+001      -1.9534826993E-011       0.0000000000E+000       1.0000000014E+000       1.0000000000E-001       1.0000000000E+000       6.6666666667E-002       1.0000000000E-003       4.6683491423E-002       0.0000000000E+000       1.0000000015E+000       0.0000000000E+000       2.7777777806E-003       4.3410307502E-002
       0.0000000000E+000       4.2590763245E-002       1.7089734433E-013       1.8842509528E+001      -1.9574096829E-011       0.0000000000E+000       1.0000000014E+000       1.0000000000E-001       1.0000000000E+000       6.6666666667E-002       1.0000000000E-003       4.6770223408E-002       0.0000000000E+000       1.0000000015E+000       0.0000000000E+000       2.7777777806E-003       4.3507897832E-002
       0.0000000000E+000       5.2316670463E-002       2.0997062072E-013       1.8822593882E+001      -1.9601483128E-011       0.0000000000E+000       1.0000000014E+000       1.0000000000E-001       1.0000000000E+000       6.6666666667E-002       1.0000000000E-003       4.6847887801E-002       0.0000000000E+000       1.0000000015E+000       0.0000000000E+000       2.7777777806E-003       4.3595243331E-002
       0.0000000000E+000       6.2115441043E-002       2.4926103813E-013       1.8798440675E+001      -1.9620104979E-011       0.0000000000E+000       1.0000000014E+000       1.0000000000E-001       1.0000000000E+000       6.6666666667E-002       1.0000000000E-003       4.6914749316E-002       0.0000000000E+000       1.0000000015E+000       0.0000000000E+000       2.7777777806E-003       4.3670407679E-002
       0.0000000000E+000       7.1975528421E-002       2.8866267152E-013       1.8770000287E+001      -1.9632150487E-011       0.0000000000E+000       1.0000000014E+000       1.0000000000E-001       1.0000000000E+000       6.6666666667E-002       1.0000000000E-003       4.6969241244E-002       0.0000000000E+000       1.0000000015E+000       0.0000000000E+000       2.7777777806E-003       4.3731644812E-002
       0.0000000000E+000       8.1885087210E-002       3.2815758484E-013       1.8737238515E+001      -1.9638035696E-011       0.0000000000E+000       1.0000000014E+000       1.0000000000E-001       1.0000000000E+000       6.6666666667E-002       1.0000000000E-003       4.7009682903E-002       0.0000000000E+000       1.0000000015E+000       0.0000000000E+000       2.7777777806E-003       4.3777079998E-002
       0.0000000000E+000       9.1832028879E-002       3.6768449919E-013       1.8700136359E+001      -1.9638565948E-011       0.0000000000E+000       1.0000000014E+000       1.0000000000E-001       1.0000000000E+000       6.6666666667E-002       1.0000000000E-003       4.7034294968E-002       0.0000000000E+000       1.0000000015E+000       0.0000000000E+000       2.7777777806E-003       4.3804725837E-002
       0.0000000000E+000       1.0180407995E-001       4.0718111140E-013       1.8658689621E+001      -1.9635032002E-011       0.0000000000E+000       1.0000000014E+000       1.0000000000E-001       1.0000000000E+000       6.6666666667E-002       1.0000000000E-003       4.7041250856E-002       0.0000000000E+000       1.0000000015E+000       0.0000000000E+000       2.7777777806E-003       4.3812538423E-002
       0.0000000000E+000       1.1178884212E-001       4.4658440221E-013       1.8612908343E+001      -1.9627432997E-011       0.0000000000E+000       1.0000000014E+000       1.0000000000E-001       1.0000000000E+000       6.6666666667E-002       1.0000000000E-003       4.7028724291E-002       0.0000000000E+000       1.0000000015E+000       0.0000000000E+000       2.7777777806E-003       4.3798468841E-002
       0.0000000000E+000       1.2177385375E-001       4.8584953257E-013       1.8562816137E+001      -1.9616108507E-011       0.0000000000E+000       1.0000000014E+000       1.0000000000E-001       1.0000000000E+000       6.6666666667E-002       1.0000000000E-003       4.6994928485E-002       0.0000000000E+000       1.0000000015E+000       0.0000000000E+000       2.7777777806E-003       4.3760505012E-002
       0.0000000000E+000       1.3174665193E-001       5.2493075152E-013       1.8508449389E+001      -1.9601621779E-011       0.0000000000E+000       1.0000000014E+000       1.0000000000E-001       1.0000000000E+000       6.6666666667E-002       1.0000000000E-003       4.6938148064E-002       0.0000000000E+000       1.0000000015E+000       0.0000000000E+000       2.7777777806E-003       4.3696705178E-002
       0.0000000000E+000       1.4169483466E-001       5.6376384635E-013       1.8449856395E+001      -1.9584192417E-011       0.0000000000E+000       1.0000000014E+000       1.0000000000E-001       1.0000000000E+000       6.6666666667E-002       1.0000000000E-003       4.6856765250E-002       0.0000000000E+000       1.0000000015E+000       0.0000000000E+000       2.7777777806E-003       4.3605224861E-002
       0.0000000000E+000       1.5160612229E-001       6.0230448974E-013       1.8387096409E+001      -1.9564350349E-011       0.0000000000E+000       1.0000000014E+000       1.0000000000E-001       1.0000000000E+000       6.6666666667E-002       1.0000000000E-003       4.6749281455E-002       0.0000000000E+000       1.0000000015E+000       0.0000000000E+000       2.7777777806E-003       4.3484338611E-002
       0.0000000000E+000       1.6146841776E-001       6.4050871481E-013       1.8320238638E+001      -1.9541861618E-011       0.0000000000E+000       1.0000000014E+000       1.0000000000E-001       1.0000000000E+000       6.6666666667E-002       1.0000000000E-003       4.6614335022E-002       0.0000000000E+000       1.0000000015E+000       0.0000000000E+000       2.7777777806E-003       4.3332457463E-002
       0.0000000000E+000       1.7126986487E-001       6.7831566090E-013       1.8249361197E+001      -1.9516880340E-011       0.0000000000E+000       1.0000000014E+000       1.0000000000E-001       1.0000000000E+000       6.6666666667E-002       1.0000000000E-003       4.6450715626E-002       0.0000000000E+000       1.0000000015E+000       0.0000000000E+000       2.7777777806E-003       4.3148142722E-002
       0.0000000000E+000       1.8099890407E-001       7.1559512418E-013       1.8174550024E+001      -1.9489905550E-011       0.0000000000E+000       1.0000000014E+000       1.0000000000E-001       1.0000000000E+000       6.6666666667E-002       1.0000000000E-003       4.6257375665E-002       0.0000000000E+000       1.0000000015E+000       0.0000000000E+000       2.7777777806E-003       4.2930116493E-002
       0.0000000000E+000       1.9064432522E-001       7.5227781344E-013       1.8095897772E+001      -1.9460713423E-011       0.0000000000E+000       1.0000000014E+000       1.0000000000E-001       1.0000000000E+000       6.6666666667E-002       1.0000000000E-003       4.6033438880E-002       0.0000000000E+000       1.0000000015E+000       0.0000000000E+000       2.7777777806E-003       4.2677269283E-002
       0.0000000000E+000       2.0019531677E-001       7.8829861810E-013       1.8013502694E+001      -1.9429109537E-011       0.0000000000E+000       1.0000000014E+000       1.0000000000E-001       1.0000000000E+000       6.6666666667E-002       1.0000000000E-003       4.5778206408E-002       0.0000000000E+000       1.0000000015E+000       0.0000000000E+000       2.7777777806E-003       4.2388664921E-002
       0.0000000000E+000       2.0964151104E-001       8.2361284553E-013       1.7927467511E+001      -1.9396250959E-011       0.0000000000E+000       1.0000000014E+000       1.0000000000E-001       1.0000000000E+000       6.6666666667E-002       1.0000000000E-003       4.5491160427E-002       0.0000000000E+000       1.0000000015E+000       0.0000000000E+000       2.7777777806E-003       4.2063543021E-002
       0.0000000000E+000       2.1897302515E-001       8.5823100014E-013       1.7837898290E+001      -1.9361885652E-011       0.0000000000E+000       1.0000000014E+000       1.0000000000E-001       1.0000000000E+000       6.6666666667E-002       1.0000000000E-003       4.5171965559E-002       0.0000000000E+000       1.0000000015E+000       0.0000000000E+000       2.7777777806E-003       4.1701319198E-002
       0.0000000000E+000       2.2818049727E-001       8.9212806681E-013       1.7744903320E+001      -1.9325790974E-011       0.0000000000E+000       1.0000000014E+000       1.0000000000E-001       1.0000000000E+000       6.6666666667E-002       1.0000000000E-003       4.4820468183E-002       0.0000000000E+000       1.0000000015E+000       0.0000000000E+000       2.7777777806E-003       4.1301583224E-002
       0.0000000000E+000       2.3725511815E-001       9.2526433936E-013       1.7648592001E+001      -1.9287530008E-011       0.0000000000E+000       1.0000000014E+000       1.0000000000E-001       1.0000000000E+000       6.6666666667E-002       1.0000000000E-003       4.4436693814E-002       0.0000000000E+000       1.0000000015E+000       0.0000000000E+000       2.7777777806E-003       4.0864095350E-002
       0.0000000000E+000       2.4618865751E-001       9.5752098212E-013       1.7549073745E+001      -1.9246970243E-011       0.0000000000E+000       1.0000000014E+000       1.0000000000E-001       1.0000000000E+000       6.6666666667E-002       1.0000000000E-003       4.4020842734E-002       0.0000000000E+000       1.0000000015E+000       0.0000000000E+000       2.7777777806E-003       4.0388780982E-002
       0.0000000000E+000       2.5497348552E-001       9.8878849420E-013       1.7446456886E+001      -1.9204892929E-011       0.0000000000E+000       1.0000000014E+000       1.0000000000E-001       1.0000000000E+000       6.6666666667E-002       1.0000000000E-003       4.3573284013E-002       0.0000000000E+000       1.0000000015E+000       0.0000000000E+000       2.7777777806E-003       3.9875723946E-002
       0.0000000000E+000       2.6360258909E-001       1.0190163953E-012       1.7340847611E+001      -1.9161449897E-011       0.0000000000E+000       1.0000000014E+000       1.0000000000E-001       1.0000000000E+000       6.6666666667E-002       1.0000000000E-003       4.3094548125E-002       0.0000000000E+000       1.0000000015E+000       0.0000000000E+000       2.7777777806E-003       3.9325158553E-002
       0.0000000000E+000       2.7206958327E-001       1.0482065600E-012       1.7232348896E+001      -1.9116525291E-011       0.0000000000E+000       1.0000000014E+000       1.0000000000E-001       1.0000000000E+000       6.6666666667E-002       1.0000000000E-003       4.2585318315E-002       0.0000000000E+000       1.0000000015E+000       0.0000000000E+000       2.7777777806E-003       3.8737460714E-002
       0.0000000000E+000       2.8036871763E-001       1.0763329764E-012       1.7121059453E+001      -1.9070291334E-011       0.0000000000E+000       1.0000000014E+000       1.0000000000E-001       1.0000000000E+000       6.6666666667E-002       1.0000000000E-003       4.2046420909E-002       0.0000000000E+000       1.0000000015E+000       0.0000000000E+000       2.7777777806E-003       3.8113138343E-002
       0.0000000000E+000       2.8849487814E-001       1.1032970590E-012       1.7007072691E+001      -1.9023660054E-011       0.0000000000E+000       1.0000000014E+000       1.0000000000E-001       1.0000000000E+000       6.6666666667E-002       1.0000000000E-003       4.1478814732E-002       0.0000000000E+000       1.0000000015E+000       0.0000000000E+000       2.7777777806E-003       3.7452821303E-002
       0.0000000000E+000       2.9644358439E-001       1.1290558935E-012       1.6890475664E+001      -1.8976725670E-011       0.0000000000E+000       1.0000000014E+000       1.0000000000E-001       1.0000000000E+000       6.6666666667E-002       1.0000000000E-003       4.0883579817E-002       0.0000000000E+000       1.0000000015E+000       0.0000000000E+000       2.7777777806E-003       3.6757251175E-002
       0.0000000000E+000       3.0421098279E-001       1.1535596315E-012       1.6771348023E+001      -1.8929576485E-011       0.0000000000E+000       1.0000000014E+000       1.0000000000E-001       1.0000000000E+000       6.6666666667E-002       1.0000000000E-003       4.0261905567E-002       0.0000000000E+000       1.0000000015E+000       0.0000000000E+000       2.7777777806E-003       3.6027271108E-002
       0.0000000000E+000       3.1179383578E-001       1.1767232358E-012       1.6649760949E+001      -1.8882733885E-011       0.0000000000E+000       1.0000000014E+000       1.0000000000E-001       1.0000000000E+000       6.6666666667E-002       1.0000000000E-003       3.9615078534E-002       0.0000000000E+000       1.0000000015E+000       0.0000000000E+000       2.7777777806E-003       3.5263816059E-002
       0.0000000000E+000       3.1918950757E-001       1.1985280804E-012       1.6525776061E+001      -1.8835828729E-011       0.0000000000E+000       1.0000000014E+000       1.0000000000E-001       1.0000000000E+000       6.6666666667E-002       1.0000000000E-003       3.8944469964E-002       0.0000000000E+000       1.0000000015E+000       0.0000000000E+000       2.7777777806E-003       3.4467903711E-002
       0.0000000000E+000       3.2639594666E-001       1.2189627882E-012       1.6399444288E+001      -1.8788549966E-011       0.0000000000E+000       1.0000000014E+000       1.0000000000E-001       1.0000000000E+000       6.6666666667E-002       1.0000000000E-003       3.8251523260E-002       0.0000000000E+000       1.0000000015E+000       0.0000000000E+000       2.7777777806E-003       3.3640626391E-002
       0.0000000000E+000       3.3341166559E-001       1.2380071730E-012       1.6270804688E+001      -1.8740637412E-011       0.0000000000E+000       1.0000000014E+000       1.0000000000E-001       1.0000000000E+000       6.6666666667E-002       1.0000000000E-003       3.7537741480E-002       0.0000000000E+000       1.0000000015E+000       0.0000000000E+000       2.7777777806E-003       3.2783144319E-002
       0.0000000000E+000       3.4023571818E-001       1.2556614213E-012       1.6139883199E+001      -1.8692410750E-011       0.0000000000E+000       1.0000000014E+000       1.0000000000E-001       1.0000000000E+000       6.6666666667E-002       1.0000000000E-003       3.6804675001E-002       0.0000000000E+000       1.0000000015E+000       0.0000000000E+000       2.7777777806E-003       3.1896680520E-002
       0.0000000000E+000       3.4686767480E-001       1.2719300075E-012       1.6006691307E+001      -1.8644321585E-011       0.0000000000E+000       1.0000000014E+000       1.0000000000E-001       1.0000000000E+000       6.6666666667E-002       1.0000000000E-003       3.6053909455E-002       0.0000000000E+000       1.0000000015E+000       0.0000000000E+000       2.7777777806E-003       3.0982517762E-002
       0.0000000000E+000       3.5330759591E-001       1.2867752112E-012       1.5871224604E+001      -1.8596284306E-011       0.0000000000E+000       1.0000000014E+000       1.0000000000E-001       1.0000000000E+000       6.6666666667E-002       1.0000000000E-003       3.5287054024E-002       0.0000000000E+000       1.0000000015E+000       0.0000000000E+000       2.7777777806E-003       3.0041997861E-002
       0.0000000000E+000       3.5955600420E-001       1.3001435394E-012       1.5733461216E+001      -1.8548326594E-011       0.0000000000E+000       1.0000000014E+000       1.0000000000E-001       1.0000000000E+000       6.6666666667E-002       1.0000000000E-003       3.4505730185E-002       0.0000000000E+000       1.0000000015E+000       0.0000000000E+000       2.7777777806E-003       2.9076523740E-002
       0.0000000000E+000       3.6561385588E-001       1.3120448334E-012       1.5593360074E+001      -1.8500602331E-011       0.0000000000E+000       1.0000000014E+000       1.0000000000E-001       1.0000000000E+000       6.6666666667E-002       1.0000000000E-003       3.3711560976E-002       0.0000000000E+000       1.0000000015E+000       0.0000000000E+000       2.7777777806E-003       2.8087564556E-002
       0.0000000000E+000       3.7148251118E-001       1.3224888696E-012       1.5450858996E+001      -1.8453182039E-011       0.0000000000E+000       1.0000000014E+000       1.0000000000E-001       1.0000000000E+000       6.6666666667E-002       1.0000000000E-003       3.2906160825E-002       0.0000000000E+000       1.0000000015E+000       0.0000000000E+000       2.7777777806E-003       2.7076664248E-002
       0.0000000000E+000       3.7716370456E-001       1.3314799479E-012       1.5305872549E+001      -1.8406192774E-011       0.0000000000E+000       1.0000000014E+000       1.0000000000E-001       1.0000000000E+000       6.6666666667E-002       1.0000000000E-003       3.2091126013E-002       0.0000000000E+000       1.0000000015E+000       0.0000000000E+000       2.7777777806E-003       2.6045453752E-002
       0.0000000000E+000       3.8265951477E-001       1.3390386837E-012       1.5158289659E+001      -1.8359627050E-011       0.0000000000E+000       1.0000000014E+000       1.0000000000E-001       1.0000000000E+000       6.6666666667E-002       1.0000000000E-003       3.1268025790E-002       0.0000000000E+000       1.0000000015E+000       0.0000000000E+000       2.7777777806E-003       2.4995667081E-002
       0.0000000000E+000       3.8797233517E-001       1.3451905278E-012       1.5007970919E+001      -1.8313696251E-011       0.0000000000E+000       1.0000000014E+000       1.0000000000E-001       1.0000000000E+000       6.6666666667E-002       1.0000000000E-003       3.0438394186E-002       0.0000000000E+000       1.0000000015E+000       0.0000000000E+000       2.7777777806E-003       2.3929161339E-002
       0.0000000000E+000       3.9310484436E-001       1.3499598981E-012       1.4854745568E+001      -1.8268375263E-011       0.0000000000E+000       1.0000000014E+000       1.0000000000E-001       1.0000000000E+000       6.6666666667E-002       1.0000000000E-003       2.9603722528E-002       0.0000000000E+000       1.0000000015E+000       0.0000000000E+000       2.7777777806E-003       2.2847940550E-002
       0.0000000000E+000       3.9805997742E-001       1.3533526720E-012       1.4698408086E+001      -1.8223595839E-011       0.0000000000E+000       1.0000000014E+000       1.0000000000E-001       1.0000000000E+000       6.6666666667E-002       1.0000000000E-003       2.8765452703E-002       0.0000000000E+000       1.0000000015E+000       0.0000000000E+000       2.7777777806E-003       2.1754182937E-002
       0.0000000000E+000       4.0284089799E-001       1.3553669368E-012       1.4538714373E+001      -1.8179390888E-011       0.0000000000E+000       1.0000000014E+000       1.0000000000E-001       1.0000000000E+000       6.6666666667E-002       1.0000000000E-003       2.7924971158E-002       0.0000000000E+000       1.0000000015E+000       0.0000000000E+000       2.7777777806E-003       2.0650271014E-002
       0.0000000000E+000       4.0745097118E-001       1.3560300647E-012       1.4375377474E+001      -1.8135787728E-011       0.0000000000E+000       1.0000000014E+000       1.0000000000E-001       1.0000000000E+000       6.6666666667E-002       1.0000000000E-003       2.7083603688E-002       0.0000000000E+000       1.0000000015E+000       0.0000000000E+000       2.7777777806E-003       1.9538823390E-002
       0.0000000000E+000       4.1189373758E-001       1.3553903948E-012       1.4208062819E+001      -1.8092856518E-011       0.0000000000E+000       1.0000000014E+000       1.0000000000E-001       1.0000000000E+000       6.6666666667E-002       1.0000000000E-003       2.6242611009E-002       0.0000000000E+000       1.0000000015E+000       0.0000000000E+000       2.7777777806E-003       1.8422726780E-002
       0.0000000000E+000       4.1617288839E-001       1.3534864231E-012       1.4036382974E+001      -1.8050652418E-011       0.0000000000E+000       1.0000000014E+000       1.0000000000E-001       1.0000000000E+000       6.6666666667E-002       1.0000000000E-003       2.5403185167E-002       0.0000000000E+000       1.0000000015E+000       0.0000000000E+000       2.7777777806E-003       1.7305166140E-002
       0.0000000000E+000       4.2029224178E-001       1.3503434824E-012       1.3859891923E+001      -1.8009158762E-011       0.0000000000E+000       1.0000000014E+000       1.0000000000E-001       1.0000000000E+000       6.6666666667E-002       1.0000000000E-003       2.4566446829E-002       0.0000000000E+000       1.0000000015E+000       0.0000000000E+000       2.7777777806E-003       1.6189650269E-002
       0.0000000000E+000       4.2425572057E-001       1.3459913932E-012       1.3678078943E+001      -1.7968518719E-011       0.0000000000E+000       1.0000000014E+000       1.0000000000E-001       1.0000000000E+000       6.6666666667E-002       1.0000000000E-003       2.3733443504E-002       0.0000000000E+000       1.0000000015E+000       0.0000000000E+000       2.7777777806E-003       1.5080029680E-002
       0.0000000000E+000       4.2806733114E-001       1.3404671653E-012       1.3490362231E+001      -1.7928743180E-011       0.0000000000E+000       1.0000000014E+000       1.0000000000E-001       1.0000000000E+000       6.6666666667E-002       1.0000000000E-003       2.2905148803E-002       0.0000000000E+000       1.0000000015E+000       0.0000000000E+000       2.7777777806E-003       1.3980503036E-002
       0.0000000000E+000       4.3173114379E-001       1.3338143547E-012       1.3296082514E+001      -1.7889744237E-011       0.0000000000E+000       1.0000000014E+000       1.0000000000E-001       1.0000000000E+000       6.6666666667E-002       1.0000000000E-003       2.2082462808E-002       0.0000000000E+000       1.0000000015E+000       0.0000000000E+000       2.7777777806E-003       1.2895608135E-002
       0.0000000000E+000       4.3525127437E-001       1.3260588493E-012       1.3094497060E+001      -1.7851532488E-011       0.0000000000E+000       1.0000000014E+000       1.0000000000E-001       1.0000000000E+000       6.6666666667E-002       1.0000000000E-003       2.1266213720E-002       0.0000000000E+000       1.0000000015E+000       0.0000000000E+000       2.7777777806E-003       1.1830193441E-002
       0.0000000000E+000       4.3863186730E-001       1.3172362433E-012       1.2884774725E+001      -1.7814217852E-011       0.0000000000E+000       1.0000000014E+000       1.0000000000E-001       1.0000000000E+000       6.6666666667E-002       1.0000000000E-003       2.0457160901E-002       0.0000000000E+000       1.0000000015E+000       0.0000000000E+000       2.7777777806E-003       1.0789366516E-002
       0.0000000000E+000       4.4187707994E-001       1.3074038454E-012       1.2665992961E+001      -1.7777864161E-011       0.0000000000E+000       1.0000000014E+000       1.0000000000E-001       1.0000000000E+000       6.6666666667E-002       1.0000000000E-003       1.9655999514E-002       0.0000000000E+000       1.0000000015E+000       0.0000000000E+000       2.7777777806E-003       9.7784166462E-003
       0.0000000000E+000       4.4499106819E-001       1.2965929155E-012       1.2437138142E+001      -1.7742465744E-011       0.0000000000E+000       1.0000000014E+000       1.0000000000E-001       1.0000000000E+000       6.6666666667E-002       1.0000000000E-003       1.8863366922E-002       0.0000000000E+000       1.0000000015E+000       0.0000000000E+000       2.7777777806E-003       8.8027104361E-003
       0.0000000000E+000       4.4797797343E-001       1.2848313548E-012       1.2197111025E+001      -1.7708089095E-011       0.0000000000E+000       1.0000000014E+000       1.0000000000E-001       1.0000000000E+000       6.6666666667E-002       1.0000000000E-003       1.8079851027E-002       0.0000000000E+000       1.0000000015E+000       0.0000000000E+000       2.7777777806E-003       7.8675612277E-003
       0.0000000000E+000       4.5084191063E-001       1.2721617904E-012       1.1944739813E+001      -1.7674794612E-011       0.0000000000E+000       1.0000000014E+000       1.0000000000E-001       1.0000000000E+000       6.6666666667E-002       1.0000000000E-003       1.7306000684E-002       0.0000000000E+000       1.0000000015E+000       0.0000000000E+000       2.7777777806E-003       6.9780757555E-003
       0.0000000000E+000       4.5358695766E-001       1.2586052799E-012       1.1678803832E+001      -1.7642653383E-011       0.0000000000E+000       1.0000000014E+000       1.0000000000E-001       1.0000000000E+000       6.6666666667E-002       1.0000000000E-003       1.6542338222E-002       0.0000000000E+000       1.0000000015E+000       0.0000000000E+000       2.7777777806E-003       6.1389842706E-003
       0.0000000000E+000       4.5621714576E-001       1.2441619813E-012       1.1398071364E+001      -1.7611772791E-011       0.0000000000E+000       1.0000000014E+000       1.0000000000E-001       1.0000000000E+000       6.6666666667E-002       1.0000000000E-003       1.5789373959E-002       0.0000000000E+000       1.0000000015E+000       0.0000000000E+000       2.7777777806E-003       5.3544631281E-003
       0.0000000000E+000       4.5873645099E-001       1.2288223289E-012       1.1101355241E+001      -1.7582262206E-011       0.0000000000E+000       1.0000000014E+000       1.0000000000E-001       1.0000000000E+000       6.6666666667E-002       1.0000000000E-003       1.5047622346E-002       0.0000000000E+000       1.0000000015E+000       0.0000000000E+000       2.7777777806E-003       4.6279611502E-003
       0.0000000000E+000       4.6114878677E-001       1.2125645869E-012       1.0787589104E+001      -1.7554251179E-011       0.0000000000E+000       1.0000000014E+000       1.0000000000E-001       1.0000000000E+000       6.6666666667E-002       1.0000000000E-003       1.4317618953E-002       0.0000000000E+000       1.0000000015E+000       0.0000000000E+000       2.7777777806E-003       3.9620425464E-003
       0.0000000000E+000       4.6345799731E-001       1.1953424902E-012       1.0455925200E+001      -1.7527807005E-011       0.0000000000E+000       1.0000000014E+000       1.0000000000E-001       1.0000000000E+000       6.6666666667E-002       1.0000000000E-003       1.3599937033E-002       0.0000000000E+000       1.0000000015E+000       0.0000000000E+000       2.7777777806E-003       3.3582594771E-003
       0.0000000000E+000       4.6566785199E-001       1.1770795208E-012       1.0105850766E+001      -1.7503034379E-011       0.0000000000E+000       1.0000000014E+000       1.0000000000E-001       1.0000000000E+000       6.6666666667E-002       1.0000000000E-003       1.2895201730E-002       0.0000000000E+000       1.0000000015E+000       0.0000000000E+000       2.7777777806E-003       2.8170663052E-003
       0.0000000000E+000       4.6778204052E-001       1.1576636679E-012       9.7373142118E+000      -1.7480006230E-011       0.0000000000E+000       1.0000000014E+000       1.0000000000E-001       1.0000000000E+000       6.6666666667E-002       1.0000000000E-003       1.2204099366E-002       0.0000000000E+000       1.0000000015E+000       0.0000000000E+000       2.7777777806E-003       2.3377851909E-003
       0.0000000000E+000       4.6980416890E-001       1.1369452651E-012       9.3508452402E+000      -1.7458763397E-011       0.0000000000E+000       1.0000000014E+000       1.0000000000E-001       1.0000000000E+000       6.6666666667E-002       1.0000000000E-003       1.1527378816E-002       0.0000000000E+000       1.0000000015E+000       0.0000000000E+000       2.7777777806E-003       1.9186291275E-003
       0.0000000000E+000       4.7173775606E-001       1.1147422641E-012       8.9476465685E+000      -1.7439336308E-011       0.0000000000E+000       1.0000000014E+000       1.0000000000E-001       1.0000000000E+000       6.6666666667E-002       1.0000000000E-003       1.0865842141E-002       0.0000000000E+000       1.0000000015E+000       0.0000000000E+000       2.7777777806E-003       1.5567840450E-003