 VARIABLES ="X","Y","U","W","P","C","T","k","eps", "v2","omega","nuSA","yplus","RHO","Pe","mu","mut"
 ZONE I=            98  J=            40  F=POINT 
       0.0000000000E+000      -9.2667936736E-003       3.7228994243E-006       1.9785538480E+001      -3.4699726400E+004       0.0000000000E+000       1.0000000000E+000       0.0000000000E+000       0.0000000000E+000       0.0000000000E+000       0.0000000000E+000       0.0000000000E+000       0.0000000000E+000       1.0000000000E+000       0.0000000000E+000       2.7777777778E-003       8.9058693062E-002
       0.0000000000E+000       9.2667936736E-003       3.7228994243E-006       1.9785538480E+001      -3.4699726400E+004       0.0000000000E+000       1.0000000000E+000       1.0000000000E-001       1.0000000000E+000       6.6666666667E-002       1.0000000000E-003       1.0000000000E-003       0.0000000000E+000       1.0000000000E+000       0.0000000000E+000       2.7777777778E-003       8.9058693062E-002
       0.0000000000E+000       2.7920250859E-002       3.8326628793E-006       1.9781776079E+001      -3.4699726404E+004       0.0000000000E+000       1.0000000000E+000       1.0000000000E-001       1.0000000000E+000       6.6666666667E-002       1.0000000000E-003       1.0000000000E-003       0.0000000000E+000       1.0000000000E+000       0.0000000000E+000       2.7777777778E-003       8.9191005998E-002
       0.0000000000E+000       4.6803837788E-002       4.0555678676E-006       1.9774126647E+001      -3.4699726408E+004       0.0000000000E+000       1.0000000000E+000       1.0000000000E-001       1.0000000000E+000       6.6666666667E-002       1.0000000000E-003       1.0000000000E-003       0.0000000000E+000       1.0000000000E+000       0.0000000000E+000       2.7777777778E-003       8.9459113935E-002
       0.0000000000E+000       6.5897829027E-002       4.2846711039E-006       1.9762494257E+001      -3.4699726413E+004       0.0000000000E+000       1.0000000000E+000       1.0000000000E-001       1.0000000000E+000       6.6666666667E-002       1.0000000000E-003       1.0000000000E-003       0.0000000000E+000       1.0000000000E+000       0.0000000000E+000       2.7777777778E-003       8.9821409626E-002
       0.0000000000E+000       8.5181526490E-002       4.5189419809E-006       1.9746805933E+001      -3.4699726417E+004       0.0000000000E+000       1.0000000000E+000       1.0000000000E-001       1.0000000000E+000       6.6666666667E-002       1.0000000000E-003       1.0000000000E-003       0.0000000000E+000       1.0000000000E+000       0.0000000000E+000       2.7777777778E-003       9.0219710160E-002
       0.0000000000E+000       1.0463334093E-001       4.7574973717E-006       1.9727006591E+001      -3.4699726422E+004       0.0000000000E+000       1.0000000000E+000       1.0000000000E-001       1.0000000000E+000       6.6666666667E-002       1.0000000000E-003       1.0000000000E-003       0.0000000000E+000       1.0000000000E+000       0.0000000000E+000       2.7777777778E-003       9.0633235877E-002
       0.0000000000E+000       1.2423088209E-001       4.9995643484E-006       1.9703058896E+001      -3.4699726427E+004       0.0000000000E+000       1.0000000000E+000       1.0000000000E-001       1.0000000000E+000       6.6666666667E-002       1.0000000000E-003       1.0000000000E-003       0.0000000000E+000       1.0000000000E+000       0.0000000000E+000       2.7777777778E-003       9.1048631142E-002
       0.0000000000E+000       1.4395105684E-001       5.2444563506E-006       1.9674942533E+001      -3.4699726431E+004       0.0000000000E+000       1.0000000000E+000       1.0000000000E-001       1.0000000000E+000       6.6666666667E-002       1.0000000000E-003       1.0000000000E-003       0.0000000000E+000       1.0000000000E+000       0.0000000000E+000       2.7777777778E-003       9.1455134929E-002
       0.0000000000E+000       1.6377017442E-001       5.4915550489E-006       1.9642653328E+001      -3.4699726435E+004       0.0000000000E+000       1.0000000000E+000       1.0000000000E-001       1.0000000000E+000       6.6666666667E-002       1.0000000000E-003       1.0000000000E-003       0.0000000000E+000       1.0000000000E+000       0.0000000000E+000       2.7777777778E-003       9.1843322409E-002
       0.0000000000E+000       1.8366405776E-001       5.7402928327E-006       1.9606202312E+001      -3.4699726440E+004       0.0000000000E+000       1.0000000000E+000       1.0000000000E-001       1.0000000000E+000       6.6666666667E-002       1.0000000000E-003       1.0000000000E-003       0.0000000000E+000       1.0000000000E+000       0.0000000000E+000       2.7777777778E-003       9.2204656696E-002
       0.0000000000E+000       2.0360815989E-001       5.9901410818E-006       1.9565614729E+001      -3.4699726444E+004       0.0000000000E+000       1.0000000000E+000       1.0000000000E-001       1.0000000000E+000       6.6666666667E-002       1.0000000000E-003       1.0000000000E-003       0.0000000000E+000       1.0000000000E+000       0.0000000000E+000       2.7777777778E-003       9.2531300503E-002
       0.0000000000E+000       2.2357768425E-001       6.2406011466E-006       1.9520929028E+001      -3.4699726448E+004       0.0000000000E+000       1.0000000000E+000       1.0000000000E-001       1.0000000000E+000       6.6666666667E-002       1.0000000000E-003       1.0000000000E-003       0.0000000000E+000       1.0000000000E+000       0.0000000000E+000       2.7777777778E-003       9.2816031465E-002
       0.0000000000E+000       2.4354770750E-001       6.4911937168E-006       1.9472195826E+001      -3.4699726452E+004       0.0000000000E+000       1.0000000000E+000       1.0000000000E-001       1.0000000000E+000       6.6666666667E-002       1.0000000000E-003       1.0000000000E-003       0.0000000000E+000       1.0000000000E+000       0.0000000000E+000       2.7777777778E-003       9.3052204751E-002
       0.0000000000E+000       2.6349330387E-001       6.7414540108E-006       1.9419476874E+001      -3.4699726456E+004       0.0000000000E+000       1.0000000000E+000       1.0000000000E-001       1.0000000000E+000       6.6666666667E-002       1.0000000000E-003       1.0000000000E-003       0.0000000000E+000       1.0000000000E+000       0.0000000000E+000       2.7777777778E-003       9.3233738380E-002
       0.0000000000E+000       2.8338966932E-001       6.9909257625E-006       1.9362844015E+001      -3.4699726460E+004       0.0000000000E+000       1.0000000000E+000       1.0000000000E-001       1.0000000000E+000       6.6666666667E-002       1.0000000000E-003       1.0000000000E-003       0.0000000000E+000       1.0000000000E+000       0.0000000000E+000       2.7777777778E-003       9.3355109920E-002
       0.0000000000E+000       3.0321224457E-001       7.2391511941E-006       1.9302378161E+001      -3.4699726463E+004       0.0000000000E+000       1.0000000000E+000       1.0000000000E-001       1.0000000000E+000       6.6666666667E-002       1.0000000000E-003       1.0000000000E-003       0.0000000000E+000       1.0000000000E+000       0.0000000000E+000       2.7777777778E-003       9.3411357694E-002
       0.0000000000E+000       3.2293683551E-001       7.4856684803E-006       1.9238168278E+001      -3.4699726467E+004       0.0000000000E+000       1.0000000000E+000       1.0000000000E-001       1.0000000000E+000       6.6666666667E-002       1.0000000000E-003       1.0000000000E-003       0.0000000000E+000       1.0000000000E+000       0.0000000000E+000       2.7777777778E-003       9.3398083203E-002
       0.0000000000E+000       3.4253972973E-001       7.7300111810E-006       1.9170310397E+001      -3.4699726470E+004       0.0000000000E+000       1.0000000000E+000       1.0000000000E-001       1.0000000000E+000       6.6666666667E-002       1.0000000000E-003       1.0000000000E-003       0.0000000000E+000       1.0000000000E+000       0.0000000000E+000       2.7777777778E-003       9.3311452435E-002
       0.0000000000E+000       3.6199780814E-001       7.9717039152E-006       1.9098906644E+001      -3.4699726474E+004       0.0000000000E+000       1.0000000000E+000       1.0000000000E-001       1.0000000000E+000       6.6666666667E-002       1.0000000000E-003       1.0000000000E-003       0.0000000000E+000       1.0000000000E+000       0.0000000000E+000       2.7777777778E-003       9.3148195318E-002
       0.0000000000E+000       3.8128865043E-001       8.2102625385E-006       1.9024064298E+001      -3.4699726477E+004       0.0000000000E+000       1.0000000000E+000       1.0000000000E-001       1.0000000000E+000       6.6666666667E-002       1.0000000000E-003       1.0000000000E-003       0.0000000000E+000       1.0000000000E+000       0.0000000000E+000       2.7777777778E-003       9.2905602582E-002
       0.0000000000E+000       4.0039063353E-001       8.4451941733E-006       1.8945894885E+001      -3.4699726480E+004       0.0000000000E+000       1.0000000000E+000       1.0000000000E-001       1.0000000000E+000       6.6666666667E-002       1.0000000000E-003       1.0000000000E-003       0.0000000000E+000       1.0000000000E+000       0.0000000000E+000       2.7777777778E-003       9.2581519281E-002
       0.0000000000E+000       4.1928302209E-001       8.6759958773E-006       1.8864513297E+001      -3.4699726483E+004       0.0000000000E+000       1.0000000000E+000       1.0000000000E-001       1.0000000000E+000       6.6666666667E-002       1.0000000000E-003       1.0000000000E-003       0.0000000000E+000       1.0000000000E+000       0.0000000000E+000       2.7777777778E-003       9.2174335105E-002
       0.0000000000E+000       4.3794605030E-001       8.9021548719E-006       1.8780036945E+001      -3.4699726486E+004       0.0000000000E+000       1.0000000000E+000       1.0000000000E-001       1.0000000000E+000       6.6666666667E-002       1.0000000000E-003       1.0000000000E-003       0.0000000000E+000       1.0000000000E+000       0.0000000000E+000       2.7777777778E-003       9.1682971271E-002
       0.0000000000E+000       4.5636099455E-001       9.1231504114E-006       1.8692584953E+001      -3.4699726488E+004       0.0000000000E+000       1.0000000000E+000       1.0000000000E-001       1.0000000000E+000       6.6666666667E-002       1.0000000000E-003       1.0000000000E-003       0.0000000000E+000       1.0000000000E+000       0.0000000000E+000       2.7777777778E-003       9.1106864230E-002
       0.0000000000E+000       4.7451023629E-001       9.3384536952E-006       1.8602277383E+001      -3.4699726491E+004       0.0000000000E+000       1.0000000000E+000       1.0000000000E-001       1.0000000000E+000       6.6666666667E-002       1.0000000000E-003       1.0000000000E-003       0.0000000000E+000       1.0000000000E+000       0.0000000000E+000       2.7777777778E-003       9.0445946268E-002
       0.0000000000E+000       4.9237731502E-001       9.5475297206E-006       1.8509234494E+001      -3.4699726493E+004       0.0000000000E+000       1.0000000000E+000       1.0000000000E-001       1.0000000000E+000       6.6666666667E-002       1.0000000000E-003       1.0000000000E-003       0.0000000000E+000       1.0000000000E+000       0.0000000000E+000       2.7777777778E-003       8.9700623164E-002
       0.0000000000E+000       5.0994697103E-001       9.7498398584E-006       1.8413576049E+001      -3.4699726495E+004       0.0000000000E+000       1.0000000000E+000       1.0000000000E-001       1.0000000000E+000       6.6666666667E-002       1.0000000000E-003       1.0000000000E-003       0.0000000000E+000       1.0000000000E+000       0.0000000000E+000       2.7777777778E-003       8.8871749186E-002
       0.0000000000E+000       5.2720517819E-001       9.9448416276E-006       1.8315420645E+001      -3.4699726497E+004       0.0000000000E+000       1.0000000000E+000       1.0000000000E-001       1.0000000000E+000       6.6666666667E-002       1.0000000000E-003       1.0000000000E-003       0.0000000000E+000       1.0000000000E+000       0.0000000000E+000       2.7777777778E-003       8.7960599708E-002
       0.0000000000E+000       5.4413916653E-001       1.0131992948E-005       1.8214885089E+001      -3.4699726499E+004       0.0000000000E+000       1.0000000000E+000       1.0000000000E-001       1.0000000000E+000       6.6666666667E-002       1.0000000000E-003       1.0000000000E-003       0.0000000000E+000       1.0000000000E+000       0.0000000000E+000       2.7777777778E-003       8.6968841774E-002
       0.0000000000E+000       5.6073743527E-001       1.0310755519E-005       1.8112083808E+001      -3.4699726501E+004       0.0000000000E+000       1.0000000000E+000       1.0000000000E-001       1.0000000000E+000       6.6666666667E-002       1.0000000000E-003       1.0000000000E-003       0.0000000000E+000       1.0000000000E+000       0.0000000000E+000       2.7777777778E-003       8.5898502912E-002
       0.0000000000E+000       5.7698975628E-001       1.0480596288E-005       1.8007128294E+001      -3.4699726503E+004       0.0000000000E+000       1.0000000000E+000       1.0000000000E-001       1.0000000000E+000       6.6666666667E-002       1.0000000000E-003       1.0000000000E-003       0.0000000000E+000       1.0000000000E+000       0.0000000000E+000       2.7777777778E-003       8.4751938547E-002
       0.0000000000E+000       5.9288716879E-001       1.0640987826E-005       1.7900126580E+001      -3.4699726505E+004       0.0000000000E+000       1.0000000000E+000       1.0000000000E-001       1.0000000000E+000       6.6666666667E-002       1.0000000000E-003       1.0000000000E-003       0.0000000000E+000       1.0000000000E+000       0.0000000000E+000       2.7777777778E-003       8.3531798341E-002
       0.0000000000E+000       6.0842196558E-001       1.0791414518E-005       1.7791182747E+001      -3.4699726506E+004       0.0000000000E+000       1.0000000000E+000       1.0000000000E-001       1.0000000000E+000       6.6666666667E-002       1.0000000000E-003       1.0000000000E-003       0.0000000000E+000       1.0000000000E+000       0.0000000000E+000       2.7777777778E-003       8.2240991785E-002
       0.0000000000E+000       6.2358767156E-001       1.0931377178E-005       1.7680396465E+001      -3.4699726508E+004       0.0000000000E+000       1.0000000000E+000       1.0000000000E-001       1.0000000000E+000       6.6666666667E-002       1.0000000000E-003       1.0000000000E-003       0.0000000000E+000       1.0000000000E+000       0.0000000000E+000       2.7777777778E-003       8.0882653386E-002
       0.0000000000E+000       6.3837901513E-001       1.1060388089E-005       1.7567862549E+001      -3.4699726509E+004       0.0000000000E+000       1.0000000000E+000       1.0000000000E-001       1.0000000000E+000       6.6666666667E-002       1.0000000000E-003       1.0000000000E-003       0.0000000000E+000       1.0000000000E+000       0.0000000000E+000       2.7777777778E-003       7.9460107720E-002
       0.0000000000E+000       6.5279189332E-001       1.1177981060E-005       1.7453670547E+001      -3.4699726510E+004       0.0000000000E+000       1.0000000000E+000       1.0000000000E-001       1.0000000000E+000       6.6666666667E-002       1.0000000000E-003       1.0000000000E-003       0.0000000000E+000       1.0000000000E+000       0.0000000000E+000       2.7777777778E-003       7.7976834684E-002
       0.0000000000E+000       6.6682333117E-001       1.1283710265E-005       1.7337904337E+001      -3.4699726511E+004       0.0000000000E+000       1.0000000000E+000       1.0000000000E-001       1.0000000000E+000       6.6666666667E-002       1.0000000000E-003       1.0000000000E-003       0.0000000000E+000       1.0000000000E+000       0.0000000000E+000       2.7777777778E-003       7.6436435203E-002
       0.0000000000E+000       6.8047143635E-001       1.1377150570E-005       1.7220641740E+001      -3.4699726512E+004       0.0000000000E+000       1.0000000000E+000       1.0000000000E-001       1.0000000000E+000       6.6666666667E-002       1.0000000000E-003       1.0000000000E-003       0.0000000000E+000       1.0000000000E+000       0.0000000000E+000       2.7777777778E-003       7.4842597615E-002
       0.0000000000E+000       6.9373534961E-001       1.1457902325E-005       1.7101954133E+001      -3.4699726513E+004       0.0000000000E+000       1.0000000000E+000       1.0000000000E-001       1.0000000000E+000       6.6666666667E-002       1.0000000000E-003       1.0000000000E-003       0.0000000000E+000       1.0000000000E+000       0.0000000000E+000       2.7777777778E-003       7.3199064921E-002
       0.0000000000E+000       7.0661519181E-001       1.1525588272E-005       1.6981906070E+001      -3.4699726514E+004       0.0000000000E+000       1.0000000000E+000       1.0000000000E-001       1.0000000000E+000       6.6666666667E-002       1.0000000000E-003       1.0000000000E-003       0.0000000000E+000       1.0000000000E+000       0.0000000000E+000       2.7777777778E-003       7.1509603166E-002
       0.0000000000E+000       7.1911200840E-001       1.1579858370E-005       1.6860554880E+001      -3.4699726515E+004       0.0000000000E+000       1.0000000000E+000       1.0000000000E-001       1.0000000000E+000       6.6666666667E-002       1.0000000000E-003       1.0000000000E-003       0.0000000000E+000       1.0000000000E+000       0.0000000000E+000       2.7777777778E-003       6.9777971072E-002
       0.0000000000E+000       7.3122771176E-001       1.1620389565E-005       1.6737950261E+001      -3.4699726515E+004       0.0000000000E+000       1.0000000000E+000       1.0000000000E-001       1.0000000000E+000       6.6666666667E-002       1.0000000000E-003       1.0000000000E-003       0.0000000000E+000       1.0000000000E+000       0.0000000000E+000       2.7777777778E-003       6.8007891093E-002
       0.0000000000E+000       7.4296502236E-001       1.1646889271E-005       1.6614133832E+001      -3.4699726516E+004       0.0000000000E+000       1.0000000000E+000       1.0000000000E-001       1.0000000000E+000       6.6666666667E-002       1.0000000000E-003       1.0000000000E-003       0.0000000000E+000       1.0000000000E+000       0.0000000000E+000       2.7777777778E-003       6.6203021979E-002
       0.0000000000E+000       7.5432740911E-001       1.1659096863E-005       1.6489138654E+001      -3.4699726517E+004       0.0000000000E+000       1.0000000000E+000       1.0000000000E-001       1.0000000000E+000       6.6666666667E-002       1.0000000000E-003       1.0000000000E-003       0.0000000000E+000       1.0000000000E+000       0.0000000000E+000       2.7777777778E-003       6.4366932997E-002
       0.0000000000E+000       7.6531902954E-001       1.1656783326E-005       1.6362988686E+001      -3.4699726517E+004       0.0000000000E+000       1.0000000000E+000       1.0000000000E-001       1.0000000000E+000       6.6666666667E-002       1.0000000000E-003       1.0000000000E-003       0.0000000000E+000       1.0000000000E+000       0.0000000000E+000       2.7777777778E-003       6.2503079877E-002
       0.0000000000E+000       7.7594467035E-001       1.1639751614E-005       1.6235698171E+001      -3.4699726517E+004       0.0000000000E+000       1.0000000000E+000       1.0000000000E-001       1.0000000000E+000       6.6666666667E-002       1.0000000000E-003       1.0000000000E-003       0.0000000000E+000       1.0000000000E+000       0.0000000000E+000       2.7777777778E-003       6.0614782617E-002
       0.0000000000E+000       7.8620968872E-001       1.1607838301E-005       1.6107270937E+001      -3.4699726518E+004       0.0000000000E+000       1.0000000000E+000       1.0000000000E-001       1.0000000000E+000       6.6666666667E-002       1.0000000000E-003       1.0000000000E-003       0.0000000000E+000       1.0000000000E+000       0.0000000000E+000       2.7777777778E-003       5.8705205250E-002
       0.0000000000E+000       7.9611995484E-001       1.1560915575E-005       1.5977699567E+001      -3.4699726518E+004       0.0000000000E+000       1.0000000000E+000       1.0000000000E-001       1.0000000000E+000       6.6666666667E-002       1.0000000000E-003       1.0000000000E-003       0.0000000000E+000       1.0000000000E+000       0.0000000000E+000       2.7777777778E-003       5.6777337752E-002
       0.0000000000E+000       8.0568179598E-001       1.1498889558E-005       1.5846964438E+001      -3.4699726518E+004       0.0000000000E+000       1.0000000000E+000       1.0000000000E-001       1.0000000000E+000       6.6666666667E-002       1.0000000000E-003       1.0000000000E-003       0.0000000000E+000       1.0000000000E+000       0.0000000000E+000       2.7777777778E-003       5.4833980324E-002
       0.0000000000E+000       8.1490194236E-001       1.1421699294E-005       1.5715032572E+001      -3.4699726519E+004       0.0000000000E+000       1.0000000000E+000       1.0000000000E-001       1.0000000000E+000       6.6666666667E-002       1.0000000000E-003       1.0000000000E-003       0.0000000000E+000       1.0000000000E+000       0.0000000000E+000       2.7777777778E-003       5.2877730295E-002
       0.0000000000E+000       8.2378747516E-001       1.1329316661E-005       1.5581856275E+001      -3.4699726519E+004       0.0000000000E+000       1.0000000000E+000       1.0000000000E-001       1.0000000000E+000       6.6666666667E-002       1.0000000000E-003       1.0000000000E-003       0.0000000000E+000       1.0000000000E+000       0.0000000000E+000       2.7777777778E-003       5.0910972053E-002
       0.0000000000E+000       8.3234577677E-001       1.1221748121E-005       1.5447371499E+001      -3.4699726519E+004       0.0000000000E+000       1.0000000000E+000       1.0000000000E-001       1.0000000000E+000       6.6666666667E-002       1.0000000000E-003       1.0000000000E-003       0.0000000000E+000       1.0000000000E+000       0.0000000000E+000       2.7777777778E-003       4.8935871120E-002
       0.0000000000E+000       8.4058448357E-001       1.1099031598E-005       1.5311495883E+001      -3.4699726519E+004       0.0000000000E+000       1.0000000000E+000       1.0000000000E-001       1.0000000000E+000       6.6666666667E-002       1.0000000000E-003       1.0000000000E-003       0.0000000000E+000       1.0000000000E+000       0.0000000000E+000       2.7777777778E-003       4.6954372480E-002
       0.0000000000E+000       8.4851144115E-001       1.0961239400E-005       1.5174126380E+001      -3.4699726519E+004       0.0000000000E+000       1.0000000000E+000       1.0000000000E-001       1.0000000000E+000       6.6666666667E-002       1.0000000000E-003       1.0000000000E-003       0.0000000000E+000       1.0000000000E+000       0.0000000000E+000       2.7777777778E-003       4.4968204734E-002
       0.0000000000E+000       8.5613466229E-001       1.0808475137E-005       1.5035136404E+001      -3.4699726519E+004       0.0000000000E+000       1.0000000000E+000       1.0000000000E-001       1.0000000000E+000       6.6666666667E-002       1.0000000000E-003       1.0000000000E-003       0.0000000000E+000       1.0000000000E+000       0.0000000000E+000       2.7777777778E-003       4.2978891563E-002
       0.0000000000E+000       8.6346228758E-001       1.0640871972E-005       1.4894372359E+001      -3.4699726519E+004       0.0000000000E+000       1.0000000000E+000       1.0000000000E-001       1.0000000000E+000       6.6666666667E-002       1.0000000000E-003       1.0000000000E-003       0.0000000000E+000       1.0000000000E+000       0.0000000000E+000       2.7777777778E-003       4.0987772416E-002
       0.0000000000E+000       8.7050254873E-001       1.0458598968E-005       1.4751649436E+001      -3.4699726519E+004       0.0000000000E+000       1.0000000000E+000       1.0000000000E-001       1.0000000000E+000       6.6666666667E-002       1.0000000000E-003       1.0000000000E-003       0.0000000000E+000       1.0000000000E+000       0.0000000000E+000       2.7777777778E-003       3.8996034900E-002
       0.0000000000E+000       8.7726373460E-001       1.0261857748E-005       1.4606746498E+001      -3.4699726519E+004       0.0000000000E+000       1.0000000000E+000       1.0000000000E-001       1.0000000000E+000       6.6666666667E-002       1.0000000000E-003       1.0000000000E-003       0.0000000000E+000       1.0000000000E+000       0.0000000000E+000       2.7777777778E-003       3.7004761845E-002
       0.0000000000E+000       8.8375415988E-001       1.0050884071E-005       1.4459399858E+001      -3.4699726519E+004       0.0000000000E+000       1.0000000000E+000       1.0000000000E-001       1.0000000000E+000       6.6666666667E-002       1.0000000000E-003       1.0000000000E-003       0.0000000000E+000       1.0000000000E+000       0.0000000000E+000       2.7777777778E-003       3.5014996570E-002
       0.0000000000E+000       8.8998213639E-001       9.8259473360E-006       1.4309295686E+001      -3.4699726518E+004       0.0000000000E+000       1.0000000000E+000       1.0000000000E-001       1.0000000000E+000       6.6666666667E-002       1.0000000000E-003       1.0000000000E-003       0.0000000000E+000       1.0000000000E+000       0.0000000000E+000       2.7777777778E-003       3.3027830238E-002
       0.0000000000E+000       8.9595594686E-001       9.5873555445E-006       1.4156060759E+001      -3.4699726518E+004       0.0000000000E+000       1.0000000000E+000       1.0000000000E-001       1.0000000000E+000       6.6666666667E-002       1.0000000000E-003       1.0000000000E-003       0.0000000000E+000       1.0000000000E+000       0.0000000000E+000       2.7777777778E-003       3.1044515306E-002
       0.0000000000E+000       9.0168382125E-001       9.3354558352E-006       1.3999251170E+001      -3.4699726518E+004       0.0000000000E+000       1.0000000000E+000       1.0000000000E-001       1.0000000000E+000       6.6666666667E-002       1.0000000000E-003       1.0000000000E-003       0.0000000000E+000       1.0000000000E+000       0.0000000000E+000       2.7777777778E-003       2.9066608686E-002
       0.0000000000E+000       9.0717391533E-001       9.0706397932E-006       1.3838338567E+001      -3.4699726518E+004       0.0000000000E+000       1.0000000000E+000       1.0000000000E-001       1.0000000000E+000       6.6666666667E-002       1.0000000000E-003       1.0000000000E-003       0.0000000000E+000       1.0000000000E+000       0.0000000000E+000       2.7777777778E-003       2.7096146949E-002
       0.0000000000E+000       9.1243429153E-001       8.7933463599E-006       1.3672693413E+001      -3.4699726518E+004       0.0000000000E+000       1.0000000000E+000       1.0000000000E-001       1.0000000000E+000       6.6666666667E-002       1.0000000000E-003       1.0000000000E-003       0.0000000000E+000       1.0000000000E+000       0.0000000000E+000       2.7777777778E-003       2.5135853335E-002
       0.0000000000E+000       9.1747290199E-001       8.5040738698E-006       1.3501564682E+001      -3.4699726517E+004       0.0000000000E+000       1.0000000000E+000       1.0000000000E-001       1.0000000000E+000       6.6666666667E-002       1.0000000000E-003       1.0000000000E-003       0.0000000000E+000       1.0000000000E+000       0.0000000000E+000       2.7777777778E-003       2.3189372033E-002
       0.0000000000E+000       9.2229757354E-001       8.2033904586E-006       1.3324055391E+001      -3.4699726517E+004       0.0000000000E+000       1.0000000000E+000       1.0000000000E-001       1.0000000000E+000       6.6666666667E-002       1.0000000000E-003       1.0000000000E-003       0.0000000000E+000       1.0000000000E+000       0.0000000000E+000       2.7777777778E-003       2.1261518625E-002
       0.0000000000E+000       9.2691599462E-001       7.8919407488E-006       1.3139093354E+001      -3.4699726517E+004       0.0000000000E+000       1.0000000000E+000       1.0000000000E-001       1.0000000000E+000       6.6666666667E-002       1.0000000000E-003       1.0000000000E-003       0.0000000000E+000       1.0000000000E+000       0.0000000000E+000       2.7777777778E-003       1.9358526694E-002
       0.0000000000E+000       9.3133570398E-001       7.5704597303E-006       1.2945396748E+001      -3.4699726516E+004       0.0000000000E+000       1.0000000000E+000       1.0000000000E-001       1.0000000000E+000       6.6666666667E-002       1.0000000000E-003       1.0000000000E-003       0.0000000000E+000       1.0000000000E+000       0.0000000000E+000       2.7777777778E-003       1.7488259650E-002
       0.0000000000E+000       9.3556408104E-001       7.2397916100E-006       1.2741434445E+001      -3.4699726516E+004       0.0000000000E+000       1.0000000000E+000       1.0000000000E-001       1.0000000000E+000       6.6666666667E-002       1.0000000000E-003       1.0000000000E-003       0.0000000000E+000       1.0000000000E+000       0.0000000000E+000       2.7777777778E-003       1.5660345276E-002
       0.0000000000E+000       9.3960833779E-001       6.9009084142E-006       1.2525381917E+001      -3.4699726515E+004       0.0000000000E+000       1.0000000000E+000       1.0000000000E-001       1.0000000000E+000       6.6666666667E-002       1.0000000000E-003       1.0000000000E-003       0.0000000000E+000       1.0000000000E+000       0.0000000000E+000       2.7777777778E-003       1.3886180959E-002
       0.0000000000E+000       9.4347551212E-001       6.5549256902E-006       1.2295075103E+001      -3.4699726515E+004       0.0000000000E+000       1.0000000000E+000       1.0000000000E-001       1.0000000000E+000       6.6666666667E-002       1.0000000000E-003       1.0000000000E-003       0.0000000000E+000       1.0000000000E+000       0.0000000000E+000       2.7777777778E-003       1.2178754182E-002