 VARIABLES ="X","Y","U","W","P","C","T","k","eps", "v2","omega","nuSA","yplus","RHO","Pe","mu","mut"
 ZONE I=            98  J=            34  F=POINT 
       0.0000000000E+000      -9.2667936736E-003       0.0000000000E+000       1.9787358286E+001      -5.5829655257E+010       0.0000000000E+000       1.0000000000E+000       1.0000000000E-001       1.0000000000E+000       6.6666666667E-002       1.0000000000E-003       8.9994956004E-002       0.0000000000E+000       1.0000000000E+000       0.0000000000E+000       2.7777777778E-003       8.9057643874E-002
       0.0000000000E+000       9.2667936736E-003       0.0000000000E+000       1.9787358286E+001      -5.5829655257E+010       0.0000000000E+000       1.0000000000E+000       1.0000000000E-001       1.0000000000E+000       6.6666666667E-002       1.0000000000E-003       8.9994956004E-002       0.0000000000E+000       1.0000000000E+000       0.0000000000E+000       2.7777777778E-003       8.9057643874E-002
       0.0000000000E+000       2.7920250859E-002       0.0000000000E+000       1.9783596484E+001      -5.5829655257E+010       0.0000000000E+000       1.0000000000E+000       1.0000000000E-001       1.0000000000E+000       6.6666666667E-002       1.0000000000E-003       9.0124569761E-002       0.0000000000E+000       1.0000000000E+000       0.0000000000E+000       2.7777777778E-003       8.9189909767E-002
       0.0000000000E+000       4.6803837788E-002       0.0000000000E+000       1.9775947458E+001      -5.5829655257E+010       0.0000000000E+000       1.0000000000E+000       1.0000000000E-001       1.0000000000E+000       6.6666666667E-002       1.0000000000E-003       9.0387289249E-002       0.0000000000E+000       1.0000000000E+000       0.0000000000E+000       2.7777777778E-003       8.9457970925E-002
       0.0000000000E+000       6.5897829027E-002       0.0000000000E+000       1.9764315315E+001      -5.5829655257E+010       0.0000000000E+000       1.0000000000E+000       1.0000000000E-001       1.0000000000E+000       6.6666666667E-002       1.0000000000E-003       9.0742402792E-002       0.0000000000E+000       1.0000000000E+000       0.0000000000E+000       2.7777777778E-003       8.9820232992E-002
       0.0000000000E+000       8.5181526490E-002       0.0000000000E+000       1.9748627108E+001      -5.5829655257E+010       0.0000000000E+000       1.0000000000E+000       1.0000000000E-001       1.0000000000E+000       6.6666666667E-002       1.0000000000E-003       9.1132907048E-002       0.0000000000E+000       1.0000000000E+000       0.0000000000E+000       2.7777777778E-003       9.0218504360E-002
       0.0000000000E+000       1.0463334093E-001       0.0000000000E+000       1.9728827775E+001      -5.5829655257E+010       0.0000000000E+000       1.0000000000E+000       1.0000000000E-001       1.0000000000E+000       6.6666666667E-002       1.0000000000E-003       9.1538443583E-002       0.0000000000E+000       1.0000000000E+000       0.0000000000E+000       2.7777777778E-003       9.0632004637E-002
       0.0000000000E+000       1.2423088209E-001       0.0000000000E+000       1.9704880001E+001      -5.5829655257E+010       0.0000000000E+000       1.0000000000E+000       1.0000000000E-001       1.0000000000E+000       6.6666666667E-002       1.0000000000E-003       9.1945918513E-002       0.0000000000E+000       1.0000000000E+000       0.0000000000E+000       2.7777777778E-003       9.1047378089E-002
       0.0000000000E+000       1.4395105684E-001       0.0000000000E+000       1.9676763488E+001      -5.5829655257E+010       0.0000000000E+000       1.0000000000E+000       1.0000000000E-001       1.0000000000E+000       6.6666666667E-002       1.0000000000E-003       9.2344771169E-002       0.0000000000E+000       1.0000000000E+000       0.0000000000E+000       2.7777777778E-003       9.1453863552E-002
       0.0000000000E+000       1.6377017442E-001       0.0000000000E+000       1.9644474079E+001      -5.5829655257E+010       0.0000000000E+000       1.0000000000E+000       1.0000000000E-001       1.0000000000E+000       6.6666666667E-002       1.0000000000E-003       9.2725742551E-002       0.0000000000E+000       1.0000000000E+000       0.0000000000E+000       2.7777777778E-003       9.1842035976E-002
       0.0000000000E+000       1.8366405776E-001       0.0000000000E+000       1.9608022815E+001      -5.5829655257E+010       0.0000000000E+000       1.0000000000E+000       1.0000000000E-001       1.0000000000E+000       6.6666666667E-002       1.0000000000E-003       9.3080437826E-002       0.0000000000E+000       1.0000000000E+000       0.0000000000E+000       2.7777777778E-003       9.2203358186E-002
       0.0000000000E+000       2.0360815989E-001       0.0000000000E+000       1.9567434955E+001      -5.5829655257E+010       0.0000000000E+000       1.0000000000E+000       1.0000000000E-001       1.0000000000E+000       6.6666666667E-002       1.0000000000E-003       9.3401143623E-002       0.0000000000E+000       1.0000000000E+000       0.0000000000E+000       2.7777777778E-003       9.2529992525E-002
       0.0000000000E+000       2.2357768425E-001       0.0000000000E+000       1.9522748955E+001      -5.5829655257E+010       0.0000000000E+000       1.0000000000E+000       1.0000000000E-001       1.0000000000E+000       6.6666666667E-002       1.0000000000E-003       9.3680747108E-002       0.0000000000E+000       1.0000000000E+000       0.0000000000E+000       2.7777777778E-003       9.2814716288E-002
       0.0000000000E+000       2.4354770750E-001       0.0000000000E+000       1.9474015443E+001      -5.5829655257E+010       0.0000000000E+000       1.0000000000E+000       1.0000000000E-001       1.0000000000E+000       6.6666666667E-002       1.0000000000E-003       9.3912701354E-002       0.0000000000E+000       1.0000000000E+000       0.0000000000E+000       2.7777777778E-003       9.3050884369E-002
       0.0000000000E+000       2.6349330387E-001       0.0000000000E+000       1.9421296176E+001      -5.5829655257E+010       0.0000000000E+000       1.0000000000E+000       1.0000000000E-001       1.0000000000E+000       6.6666666667E-002       1.0000000000E-003       9.4091013056E-002       0.0000000000E+000       1.0000000000E+000       0.0000000000E+000       2.7777777778E-003       9.3232414720E-002
       0.0000000000E+000       2.8338966932E-001       0.0000000000E+000       1.9364663005E+001      -5.5829655257E+010       0.0000000000E+000       1.0000000000E+000       1.0000000000E-001       1.0000000000E+000       6.6666666667E-002       1.0000000000E-003       9.4210240952E-002       0.0000000000E+000       1.0000000000E+000       0.0000000000E+000       2.7777777778E-003       9.3353784807E-002
       0.0000000000E+000       3.0321224457E-001       0.0000000000E+000       1.9304196846E+001      -5.5829655257E+010       0.0000000000E+000       1.0000000000E+000       1.0000000000E-001       1.0000000000E+000       6.6666666667E-002       1.0000000000E-003       9.4265498778E-002       0.0000000000E+000       1.0000000000E+000       0.0000000000E+000       2.7777777778E-003       9.3410032769E-002
       0.0000000000E+000       3.2293683551E-001       0.0000000000E+000       1.9239986671E+001      -5.5829655257E+010       0.0000000000E+000       1.0000000000E+000       1.0000000000E-001       1.0000000000E+000       6.6666666667E-002       1.0000000000E-003       9.4252459292E-002       0.0000000000E+000       1.0000000000E+000       0.0000000000E+000       2.7777777778E-003       9.3396759788E-002
       0.0000000000E+000       3.4253972973E-001       0.0000000000E+000       1.9172128514E+001      -5.5829655257E+010       0.0000000000E+000       1.0000000000E+000       1.0000000000E-001       1.0000000000E+000       6.6666666667E-002       1.0000000000E-003       9.4167357345E-002       0.0000000000E+000       1.0000000000E+000       0.0000000000E+000       2.7777777778E-003       9.3310131617E-002
       0.0000000000E+000       3.6199780814E-001       0.0000000000E+000       1.9100724503E+001      -5.5829655257E+010       0.0000000000E+000       1.0000000000E+000       1.0000000000E-001       1.0000000000E+000       6.6666666667E-002       1.0000000000E-003       9.4006990821E-002       0.0000000000E+000       1.0000000000E+000       0.0000000000E+000       2.7777777778E-003       9.3146878055E-002
       0.0000000000E+000       3.8128865043E-001       0.0000000000E+000       1.9025881919E+001      -5.5829655257E+010       0.0000000000E+000       1.0000000000E+000       1.0000000000E-001       1.0000000000E+000       6.6666666667E-002       1.0000000000E-003       9.3768718752E-002       0.0000000000E+000       1.0000000000E+000       0.0000000000E+000       2.7777777778E-003       9.2904289680E-002
       0.0000000000E+000       4.0039063353E-001       0.0000000000E+000       1.8947712289E+001      -5.5829655257E+010       0.0000000000E+000       1.0000000000E+000       1.0000000000E-001       1.0000000000E+000       6.6666666667E-002       1.0000000000E-003       9.3450456235E-002       0.0000000000E+000       1.0000000000E+000       0.0000000000E+000       2.7777777778E-003       9.2580211441E-002
       0.0000000000E+000       4.1928302209E-001       0.0000000000E+000       1.8866330503E+001      -5.5829655257E+010       0.0000000000E+000       1.0000000000E+000       1.0000000000E-001       1.0000000000E+000       6.6666666667E-002       1.0000000000E-003       9.3050665989E-002       0.0000000000E+000       1.0000000000E+000       0.0000000000E+000       2.7777777778E-003       9.2173032950E-002
       0.0000000000E+000       4.3794605030E-001       0.0000000000E+000       1.8781853974E+001      -5.5829655257E+010       0.0000000000E+000       1.0000000000E+000       1.0000000000E-001       1.0000000000E+000       6.6666666667E-002       1.0000000000E-003       9.2568346545E-002       0.0000000000E+000       1.0000000000E+000       0.0000000000E+000       2.7777777778E-003       9.1681675421E-002
       0.0000000000E+000       4.5636099455E-001       0.0000000000E+000       1.8694401823E+001      -5.5829655257E+010       0.0000000000E+000       1.0000000000E+000       1.0000000000E-001       1.0000000000E+000       6.6666666667E-002       1.0000000000E-003       9.2003017140E-002       0.0000000000E+000       1.0000000000E+000       0.0000000000E+000       2.7777777778E-003       9.1105575350E-002
       0.0000000000E+000       4.7451023629E-001       0.0000000000E+000       1.8604094109E+001      -5.5829655257E+010       0.0000000000E+000       1.0000000000E+000       1.0000000000E-001       1.0000000000E+000       6.6666666667E-002       1.0000000000E-003       9.1354699497E-002       0.0000000000E+000       1.0000000000E+000       0.0000000000E+000       2.7777777778E-003       9.0444665079E-002
       0.0000000000E+000       4.9237731502E-001       0.0000000000E+000       1.8511051089E+001      -5.5829655257E+010       0.0000000000E+000       1.0000000000E+000       1.0000000000E-001       1.0000000000E+000       6.6666666667E-002       1.0000000000E-003       9.0623896702E-002       0.0000000000E+000       1.0000000000E+000       0.0000000000E+000       2.7777777778E-003       8.9699350445E-002
       0.0000000000E+000       5.0994697103E-001       0.0000000000E+000       1.8415392521E+001      -5.5829655257E+010       0.0000000000E+000       1.0000000000E+000       1.0000000000E-001       1.0000000000E+000       6.6666666667E-002       1.0000000000E-003       8.9811569452E-002       0.0000000000E+000       1.0000000000E+000       0.0000000000E+000       2.7777777778E-003       8.8870485776E-002
       0.0000000000E+000       5.2720517819E-001       0.0000000000E+000       1.8317236997E+001      -5.5829655257E+010       0.0000000000E+000       1.0000000000E+000       1.0000000000E-001       1.0000000000E+000       6.6666666667E-002       1.0000000000E-003       8.8919109979E-002       0.0000000000E+000       1.0000000000E+000       0.0000000000E+000       2.7777777778E-003       8.7959346509E-002
       0.0000000000E+000       5.4413916653E-001       0.0000000000E+000       1.8216701320E+001      -5.5829655257E+010       0.0000000000E+000       1.0000000000E+000       1.0000000000E-001       1.0000000000E+000       6.6666666667E-002       1.0000000000E-003       8.7948313970E-002       0.0000000000E+000       1.0000000000E+000       0.0000000000E+000       2.7777777778E-003       8.6967599749E-002
       0.0000000000E+000       5.6073743527E-001       0.0000000000E+000       1.8113899912E+001      -5.5829655257E+010       0.0000000000E+000       1.0000000000E+000       1.0000000000E-001       1.0000000000E+000       6.6666666667E-002       1.0000000000E-003       8.6901350826E-002       0.0000000000E+000       1.0000000000E+000       0.0000000000E+000       2.7777777778E-003       8.5897273087E-002
       0.0000000000E+000       5.7698975628E-001       0.0000000000E+000       1.8008944257E+001      -5.5829655257E+010       0.0000000000E+000       1.0000000000E+000       1.0000000000E-001       1.0000000000E+000       6.6666666667E-002       1.0000000000E-003       8.5780732616E-002       0.0000000000E+000       1.0000000000E+000       0.0000000000E+000       2.7777777778E-003       8.4750722009E-002
       0.0000000000E+000       5.9288716879E-001       0.0000000000E+000       1.7901942381E+001      -5.5829655257E+010       0.0000000000E+000       1.0000000000E+000       1.0000000000E-001       1.0000000000E+000       6.6666666667E-002       1.0000000000E-003       8.4589282080E-002       0.0000000000E+000       1.0000000000E+000       0.0000000000E+000       2.7777777778E-003       8.3530596232E-002
       0.0000000000E+000       6.0842196558E-001       0.0000000000E+000       1.7792998359E+001      -5.5829655257E+010       0.0000000000E+000       1.0000000000E+000       1.0000000000E-001       1.0000000000E+000       6.6666666667E-002       1.0000000000E-003       8.3330100023E-002       0.0000000000E+000       1.0000000000E+000       0.0000000000E+000       2.7777777778E-003       8.2239805307E-002
       0.0000000000E+000       6.2358767156E-001       0.0000000000E+000       1.7682211853E+001      -5.5829655257E+010       0.0000000000E+000       1.0000000000E+000       1.0000000000E-001       1.0000000000E+000       6.6666666667E-002       1.0000000000E-003       8.2006532450E-002       0.0000000000E+000       1.0000000000E+000       0.0000000000E+000       2.7777777778E-003       8.0881483788E-002
       0.0000000000E+000       6.3837901513E-001       0.0000000000E+000       1.7569677671E+001      -5.5829655257E+010       0.0000000000E+000       1.0000000000E+000       1.0000000000E-001       1.0000000000E+000       6.6666666667E-002       1.0000000000E-003       8.0622137765E-002       0.0000000000E+000       1.0000000000E+000       0.0000000000E+000       2.7777777778E-003       7.9458956307E-002
       0.0000000000E+000       6.5279189332E-001       0.0000000000E+000       1.7455485353E+001      -5.5829655257E+010       0.0000000000E+000       1.0000000000E+000       1.0000000000E-001       1.0000000000E+000       6.6666666667E-002       1.0000000000E-003       7.9180654350E-002       0.0000000000E+000       1.0000000000E+000       0.0000000000E+000       2.7777777778E-003       7.7975702808E-002
       0.0000000000E+000       6.6682333117E-001       0.0000000000E+000       1.7339718768E+001      -5.5829655257E+010       0.0000000000E+000       1.0000000000E+000       1.0000000000E-001       1.0000000000E+000       6.6666666667E-002       1.0000000000E-003       7.7685968794E-002       0.0000000000E+000       1.0000000000E+000       0.0000000000E+000       2.7777777778E-003       7.6435324236E-002
       0.0000000000E+000       6.8047143635E-001       0.0000000000E+000       1.7222455728E+001      -5.5829655257E+010       0.0000000000E+000       1.0000000000E+000       1.0000000000E-001       1.0000000000E+000       6.6666666667E-002       1.0000000000E-003       7.6142085055E-002       0.0000000000E+000       1.0000000000E+000       0.0000000000E+000       2.7777777778E-003       7.4841508914E-002
       0.0000000000E+000       6.9373534961E-001       0.0000000000E+000       1.7103767604E+001      -5.5829655257E+010       0.0000000000E+000       1.0000000000E+000       1.0000000000E-001       1.0000000000E+000       6.6666666667E-002       1.0000000000E-003       7.4553094772E-002       0.0000000000E+000       1.0000000000E+000       0.0000000000E+000       2.7777777778E-003       7.3197999815E-002
       0.0000000000E+000       7.0661519181E-001       0.0000000000E+000       1.6983718939E+001      -5.5829655257E+010       0.0000000000E+000       1.0000000000E+000       1.0000000000E-001       1.0000000000E+000       6.6666666667E-002       1.0000000000E-003       7.2923148934E-002       0.0000000000E+000       1.0000000000E+000       0.0000000000E+000       2.7777777778E-003       7.1508562944E-002
       0.0000000000E+000       7.1911200840E-001       0.0000000000E+000       1.6862367054E+001      -5.5829655257E+010       0.0000000000E+000       1.0000000000E+000       1.0000000000E-001       1.0000000000E+000       6.6666666667E-002       1.0000000000E-003       7.1256431085E-002       0.0000000000E+000       1.0000000000E+000       0.0000000000E+000       2.7777777778E-003       6.9776956977E-002
       0.0000000000E+000       7.3122771176E-001       0.0000000000E+000       1.6739761638E+001      -5.5829655257E+010       0.0000000000E+000       1.0000000000E+000       1.0000000000E-001       1.0000000000E+000       6.6666666667E-002       1.0000000000E-003       6.9557132192E-002       0.0000000000E+000       1.0000000000E+000       0.0000000000E+000       2.7777777778E-003       6.8006904303E-002
       0.0000000000E+000       7.4296502236E-001       0.0000000000E+000       1.6615944303E+001      -5.5829655257E+010       0.0000000000E+000       1.0000000000E+000       1.0000000000E-001       1.0000000000E+000       6.6666666667E-002       1.0000000000E-003       6.7829427289E-002       0.0000000000E+000       1.0000000000E+000       0.0000000000E+000       2.7777777778E-003       6.6202063604E-002
       0.0000000000E+000       7.5432740911E-001       0.0000000000E+000       1.6490948100E+001      -5.5829655257E+010       0.0000000000E+000       1.0000000000E+000       1.0000000000E-001       1.0000000000E+000       6.6666666667E-002       1.0000000000E-003       6.6077453965E-002       0.0000000000E+000       1.0000000000E+000       0.0000000000E+000       2.7777777778E-003       6.4366004068E-002
       0.0000000000E+000       7.6531902954E-001       0.0000000000E+000       1.6364796978E+001      -5.5829655257E+010       0.0000000000E+000       1.0000000000E+000       1.0000000000E-001       1.0000000000E+000       6.6666666667E-002       1.0000000000E-003       6.4305292738E-002       0.0000000000E+000       1.0000000000E+000       0.0000000000E+000       2.7777777778E-003       6.2502181337E-002
       0.0000000000E+000       7.7594467035E-001       0.0000000000E+000       1.6237505176E+001      -5.5829655257E+010       0.0000000000E+000       1.0000000000E+000       1.0000000000E-001       1.0000000000E+000       6.6666666667E-002       1.0000000000E-003       6.2516949320E-002       0.0000000000E+000       1.0000000000E+000       0.0000000000E+000       2.7777777778E-003       6.0613915311E-002
       0.0000000000E+000       7.8620968872E-001       0.0000000000E+000       1.6109076509E+001      -5.5829655257E+010       0.0000000000E+000       1.0000000000E+000       1.0000000000E-001       1.0000000000E+000       6.6666666667E-002       1.0000000000E-003       6.0716338752E-002       0.0000000000E+000       1.0000000000E+000       0.0000000000E+000       2.7777777778E-003       5.8704369920E-002
       0.0000000000E+000       7.9611995484E-001       0.0000000000E+000       1.5979503555E+001      -5.5829655257E+010       0.0000000000E+000       1.0000000000E+000       1.0000000000E-001       1.0000000000E+000       6.6666666667E-002       1.0000000000E-003       5.8907271351E-002       0.0000000000E+000       1.0000000000E+000       0.0000000000E+000       2.7777777778E-003       5.6776535025E-002
       0.0000000000E+000       8.0568179598E-001       0.0000000000E+000       1.5848766682E+001      -5.5829655257E+010       0.0000000000E+000       1.0000000000E+000       1.0000000000E-001       1.0000000000E+000       6.6666666667E-002       1.0000000000E-003       5.7093440396E-002       0.0000000000E+000       1.0000000000E+000       0.0000000000E+000       2.7777777778E-003       5.4833210693E-002
       0.0000000000E+000       8.1490194236E-001       0.0000000000E+000       1.5716832904E+001      -5.5829655257E+010       0.0000000000E+000       1.0000000000E+000       1.0000000000E-001       1.0000000000E+000       6.6666666667E-002       1.0000000000E-003       5.5278411457E-002       0.0000000000E+000       1.0000000000E+000       0.0000000000E+000       2.7777777778E-003       5.2876994128E-002
       0.0000000000E+000       8.2378747516E-001       0.0000000000E+000       1.5583654518E+001      -5.5829655257E+010       0.0000000000E+000       1.0000000000E+000       1.0000000000E-001       1.0000000000E+000       6.6666666667E-002       1.0000000000E-003       5.3465613228E-002       0.0000000000E+000       1.0000000000E+000       0.0000000000E+000       2.7777777778E-003       5.0910269747E-002
       0.0000000000E+000       8.3234577677E-001       0.0000000000E+000       1.5449167471E+001      -5.5829655257E+010       0.0000000000E+000       1.0000000000E+000       1.0000000000E-001       1.0000000000E+000       6.6666666667E-002       1.0000000000E-003       5.1658329748E-002       0.0000000000E+000       1.0000000000E+000       0.0000000000E+000       2.7777777778E-003       4.8935202991E-002
       0.0000000000E+000       8.4058448357E-001       0.0000000000E+000       1.5313289391E+001      -5.5829655257E+010       0.0000000000E+000       1.0000000000E+000       1.0000000000E-001       1.0000000000E+000       6.6666666667E-002       1.0000000000E-003       4.9859693850E-002       0.0000000000E+000       1.0000000000E+000       0.0000000000E+000       2.7777777778E-003       4.6953738745E-002
       0.0000000000E+000       8.4851144115E-001       0.0000000000E+000       1.5175917227E+001      -5.5829655257E+010       0.0000000000E+000       1.0000000000E+000       1.0000000000E-001       1.0000000000E+000       6.6666666667E-002       1.0000000000E-003       4.8072681682E-002       0.0000000000E+000       1.0000000000E+000       0.0000000000E+000       2.7777777778E-003       4.4967605514E-002
       0.0000000000E+000       8.5613466229E-001       0.0000000000E+000       1.5036924386E+001      -5.5829655257E+010       0.0000000000E+000       1.0000000000E+000       1.0000000000E-001       1.0000000000E+000       6.6666666667E-002       1.0000000000E-003       4.6300108156E-002       0.0000000000E+000       1.0000000000E+000       0.0000000000E+000       2.7777777778E-003       4.2978326886E-002
       0.0000000000E+000       8.6346228758E-001       0.0000000000E+000       1.4896157264E+001      -5.5829655257E+010       0.0000000000E+000       1.0000000000E+000       1.0000000000E-001       1.0000000000E+000       6.6666666667E-002       1.0000000000E-003       4.4544623163E-002       0.0000000000E+000       1.0000000000E+000       0.0000000000E+000       2.7777777778E-003       4.0987242219E-002
       0.0000000000E+000       8.7050254873E-001       0.0000000000E+000       1.4753431048E+001      -5.5829655257E+010       0.0000000000E+000       1.0000000000E+000       1.0000000000E-001       1.0000000000E+000       6.6666666667E-002       1.0000000000E-003       4.2808708409E-002       0.0000000000E+000       1.0000000000E+000       0.0000000000E+000       2.7777777778E-003       3.8995539027E-002
       0.0000000000E+000       8.7726373460E-001       0.0000000000E+000       1.4608524595E+001      -5.5829655257E+010       0.0000000000E+000       1.0000000000E+000       1.0000000000E-001       1.0000000000E+000       6.6666666667E-002       1.0000000000E-003       4.1094674765E-002       0.0000000000E+000       1.0000000000E+000       0.0000000000E+000       2.7777777778E-003       3.7004300055E-002
       0.0000000000E+000       8.8375415988E-001       0.0000000000E+000       1.4461174212E+001      -5.5829655257E+010       0.0000000000E+000       1.0000000000E+000       1.0000000000E-001       1.0000000000E+000       6.6666666667E-002       1.0000000000E-003       3.9404660005E-002       0.0000000000E+000       1.0000000000E+000       0.0000000000E+000       2.7777777778E-003       3.5014568535E-002
       0.0000000000E+000       8.8998213639E-001       0.0000000000E+000       1.4311066067E+001      -5.5829655257E+010       0.0000000000E+000       1.0000000000E+000       1.0000000000E-001       1.0000000000E+000       6.6666666667E-002       1.0000000000E-003       3.7740626861E-002       0.0000000000E+000       1.0000000000E+000       0.0000000000E+000       2.7777777778E-003       3.3027435541E-002
       0.0000000000E+000       8.9595594686E-001       0.0000000000E+000       1.4157826934E+001      -5.5829655257E+010       0.0000000000E+000       1.0000000000E+000       1.0000000000E-001       1.0000000000E+000       6.6666666667E-002       1.0000000000E-003       3.6104361366E-002       0.0000000000E+000       1.0000000000E+000       0.0000000000E+000       2.7777777778E-003       3.1044153435E-002
       0.0000000000E+000       9.0168382125E-001       0.0000000000E+000       1.4001012905E+001      -5.5829655257E+010       0.0000000000E+000       1.0000000000E+000       1.0000000000E-001       1.0000000000E+000       6.6666666667E-002       1.0000000000E-003       3.4497471455E-002       0.0000000000E+000       1.0000000000E+000       0.0000000000E+000       2.7777777778E-003       2.9066279026E-002
       0.0000000000E+000       9.0717391533E-001       0.0000000000E+000       1.3840095629E+001      -5.5829655257E+010       0.0000000000E+000       1.0000000000E+000       1.0000000000E-001       1.0000000000E+000       6.6666666667E-002       1.0000000000E-003       3.2921385896E-002       0.0000000000E+000       1.0000000000E+000       0.0000000000E+000       2.7777777778E-003       2.7095848762E-002
       0.0000000000E+000       9.1243429153E-001       0.0000000000E+000       1.3674445574E+001      -5.5829655257E+010       0.0000000000E+000       1.0000000000E+000       1.0000000000E-001       1.0000000000E+000       6.6666666667E-002       1.0000000000E-003       3.1377353645E-002       0.0000000000E+000       1.0000000000E+000       0.0000000000E+000       2.7777777778E-003       2.5135585733E-002
       0.0000000000E+000       9.1747290199E-001       0.0000000000E+000       1.3503311723E+001      -5.5829655257E+010       0.0000000000E+000       1.0000000000E+000       1.0000000000E-001       1.0000000000E+000       6.6666666667E-002       1.0000000000E-003       2.9866443806E-002       0.0000000000E+000       1.0000000000E+000       0.0000000000E+000       2.7777777778E-003       2.3189133945E-002
       0.0000000000E+000       9.2229757354E-001       0.0000000000E+000       1.3325797106E+001      -5.5829655257E+010       0.0000000000E+000       1.0000000000E+000       1.0000000000E-001       1.0000000000E+000       6.6666666667E-002       1.0000000000E-003       2.8389546468E-002       0.0000000000E+000       1.0000000000E+000       0.0000000000E+000       2.7777777778E-003       2.1261308752E-002
       0.0000000000E+000       9.2691599462E-001       0.0000000000E+000       1.3140829556E+001      -5.5829655257E+010       0.0000000000E+000       1.0000000000E+000       1.0000000000E-001       1.0000000000E+000       6.6666666667E-002       1.0000000000E-003       2.6947374800E-002       0.0000000000E+000       1.0000000000E+000       0.0000000000E+000       2.7777777778E-003       1.9358343460E-002
       0.0000000000E+000       9.3133570398E-001       0.0000000000E+000       1.2947127280E+001      -5.5829655257E+010       0.0000000000E+000       1.0000000000E+000       1.0000000000E-001       1.0000000000E+000       6.6666666667E-002       1.0000000000E-003       2.5540468915E-002       0.0000000000E+000       1.0000000000E+000       0.0000000000E+000       2.7777777778E-003       1.7488101160E-002
       0.0000000000E+000       9.3556408104E-001       0.0000000000E+000       1.2743159191E+001      -5.5829655257E+010       0.0000000000E+000       1.0000000000E+000       1.0000000000E-001       1.0000000000E+000       6.6666666667E-002       1.0000000000E-003       2.4169202183E-002       0.0000000000E+000       1.0000000000E+000       0.0000000000E+000       2.7777777778E-003       1.5660209282E-002
       0.0000000000E+000       9.3960833779E-001       0.0000000000E+000       1.2527100812E+001      -5.5829655257E+010       0.0000000000E+000       1.0000000000E+000       1.0000000000E-001       1.0000000000E+000       6.6666666667E-002       1.0000000000E-003       2.2833790860E-002       0.0000000000E+000       1.0000000000E+000       0.0000000000E+000       2.7777777778E-003       1.3886064861E-002
       0.0000000000E+000       9.4347551212E-001       0.0000000000E+000       1.2296788152E+001      -5.5829655257E+010       0.0000000000E+000       1.0000000000E+000       1.0000000000E-001       1.0000000000E+000       6.6666666667E-002       1.0000000000E-003       2.1534308101E-002       0.0000000000E+000       1.0000000000E+000       0.0000000000E+000       2.7777777778E-003       1.2178655070E-002