 VARIABLES ="X","Y","U","W","C","T","k","eps", "v2","omega","nuSA","yplus","RHO","Pe","mu","mut"
 ZONE I=            98  J=           392  F=POINT 
       0.0000000000E+000      -4.6333968368E-003       0.0000000000E+000       1.8881310814E+001       0.0000000000E+000       9.9999999878E-001       1.0000000000E-001       1.0000000000E+000       6.6666666667E-002       1.0000000000E-003       4.6493015986E-002       0.0000000000E+000       1.0000000000E+000       0.0000000000E+000       2.7777777791E-003       4.3195810511E-002
       0.0000000000E+000       4.6333968368E-003       0.0000000000E+000       1.8881310814E+001       0.0000000000E+000       9.9999999878E-001       1.0000000000E-001       1.0000000000E+000       6.6666666667E-002       1.0000000000E-003       4.6493015986E-002       0.0000000000E+000       1.0000000000E+000       0.0000000000E+000       2.7777777791E-003       4.3195810511E-002
       0.0000000000E+000       1.3960125430E-002       0.0000000000E+000       1.8877552386E+001       0.0000000000E+000       9.9999999878E-001       1.0000000000E-001       1.0000000000E+000       6.6666666667E-002       1.0000000000E-003       4.6525756879E-002       0.0000000000E+000       1.0000000000E+000       0.0000000000E+000       2.7777777791E-003       4.3232697673E-002
       0.0000000000E+000       2.3401918894E-002       0.0000000000E+000       1.8869902865E+001       0.0000000000E+000       9.9999999878E-001       1.0000000000E-001       1.0000000000E+000       6.6666666667E-002       1.0000000000E-003       4.6592163125E-002       0.0000000000E+000       1.0000000000E+000       0.0000000000E+000       2.7777777791E-003       4.3307491553E-002
       0.0000000000E+000       3.2948914513E-002       0.0000000000E+000       1.8858252630E+001       0.0000000000E+000       9.9999999878E-001       1.0000000000E-001       1.0000000000E+000       6.6666666667E-002       1.0000000000E-003       4.6683491431E-002       0.0000000000E+000       1.0000000000E+000       0.0000000000E+000       2.7777777791E-003       4.3410307445E-002
       0.0000000000E+000       4.2590763245E-002       0.0000000000E+000       1.8842509562E+001       0.0000000000E+000       9.9999999878E-001       1.0000000000E-001       1.0000000000E+000       6.6666666667E-002       1.0000000000E-003       4.6770223417E-002       0.0000000000E+000       1.0000000000E+000       0.0000000000E+000       2.7777777791E-003       4.3507897774E-002
       0.0000000000E+000       5.2316670463E-002       0.0000000000E+000       1.8822593916E+001       0.0000000000E+000       9.9999999878E-001       1.0000000000E-001       1.0000000000E+000       6.6666666667E-002       1.0000000000E-003       4.6847887811E-002       0.0000000000E+000       1.0000000000E+000       0.0000000000E+000       2.7777777791E-003       4.3595243274E-002
       0.0000000000E+000       6.2115441043E-002       0.0000000000E+000       1.8798440709E+001       0.0000000000E+000       9.9999999878E-001       1.0000000000E-001       1.0000000000E+000       6.6666666667E-002       1.0000000000E-003       4.6914749326E-002       0.0000000000E+000       1.0000000000E+000       0.0000000000E+000       2.7777777791E-003       4.3670407623E-002
       0.0000000000E+000       7.1975528421E-002       0.0000000000E+000       1.8770000320E+001       0.0000000000E+000       9.9999999878E-001       1.0000000000E-001       1.0000000000E+000       6.6666666667E-002       1.0000000000E-003       4.6969241255E-002       0.0000000000E+000       1.0000000000E+000       0.0000000000E+000       2.7777777791E-003       4.3731644757E-002
       0.0000000000E+000       8.1885087210E-002       0.0000000000E+000       1.8737238548E+001       0.0000000000E+000       9.9999999878E-001       1.0000000000E-001       1.0000000000E+000       6.6666666667E-002       1.0000000000E-003       4.7009682916E-002       0.0000000000E+000       1.0000000000E+000       0.0000000000E+000       2.7777777791E-003       4.3777079944E-002
       0.0000000000E+000       9.1832028879E-002       0.0000000000E+000       1.8700136393E+001       0.0000000000E+000       9.9999999878E-001       1.0000000000E-001       1.0000000000E+000       6.6666666667E-002       1.0000000000E-003       4.7034294982E-002       0.0000000000E+000       1.0000000000E+000       0.0000000000E+000       2.7777777791E-003       4.3804725785E-002
       0.0000000000E+000       1.0180407995E-001       0.0000000000E+000       1.8658689654E+001       0.0000000000E+000       9.9999999878E-001       1.0000000000E-001       1.0000000000E+000       6.6666666667E-002       1.0000000000E-003       4.7041250871E-002       0.0000000000E+000       1.0000000000E+000       0.0000000000E+000       2.7777777791E-003       4.3812538372E-002
       0.0000000000E+000       1.1178884212E-001       0.0000000000E+000       1.8612908376E+001       0.0000000000E+000       9.9999999878E-001       1.0000000000E-001       1.0000000000E+000       6.6666666667E-002       1.0000000000E-003       4.7028724307E-002       0.0000000000E+000       1.0000000000E+000       0.0000000000E+000       2.7777777791E-003       4.3798468792E-002
       0.0000000000E+000       1.2177385375E-001       0.0000000000E+000       1.8562816169E+001       0.0000000000E+000       9.9999999878E-001       1.0000000000E-001       1.0000000000E+000       6.6666666667E-002       1.0000000000E-003       4.6994928503E-002       0.0000000000E+000       1.0000000000E+000       0.0000000000E+000       2.7777777791E-003       4.3760504964E-002
       0.0000000000E+000       1.3174665193E-001       0.0000000000E+000       1.8508449422E+001       0.0000000000E+000       9.9999999878E-001       1.0000000000E-001       1.0000000000E+000       6.6666666667E-002       1.0000000000E-003       4.6938148084E-002       0.0000000000E+000       1.0000000000E+000       0.0000000000E+000       2.7777777791E-003       4.3696705132E-002
       0.0000000000E+000       1.4169483466E-001       0.0000000000E+000       1.8449856428E+001       0.0000000000E+000       9.9999999878E-001       1.0000000000E-001       1.0000000000E+000       6.6666666667E-002       1.0000000000E-003       4.6856765272E-002       0.0000000000E+000       1.0000000000E+000       0.0000000000E+000       2.7777777791E-003       4.3605224818E-002
       0.0000000000E+000       1.5160612229E-001       0.0000000000E+000       1.8387096441E+001       0.0000000000E+000       9.9999999878E-001       1.0000000000E-001       1.0000000000E+000       6.6666666667E-002       1.0000000000E-003       4.6749281478E-002       0.0000000000E+000       1.0000000000E+000       0.0000000000E+000       2.7777777791E-003       4.3484338570E-002
       0.0000000000E+000       1.6146841776E-001       0.0000000000E+000       1.8320238670E+001       0.0000000000E+000       9.9999999878E-001       1.0000000000E-001       1.0000000000E+000       6.6666666667E-002       1.0000000000E-003       4.6614335047E-002       0.0000000000E+000       1.0000000000E+000       0.0000000000E+000       2.7777777791E-003       4.3332457424E-002
       0.0000000000E+000       1.7126986487E-001       0.0000000000E+000       1.8249361229E+001       0.0000000000E+000       9.9999999878E-001       1.0000000000E-001       1.0000000000E+000       6.6666666667E-002       1.0000000000E-003       4.6450715653E-002       0.0000000000E+000       1.0000000000E+000       0.0000000000E+000       2.7777777791E-003       4.3148142685E-002
       0.0000000000E+000       1.8099890407E-001       0.0000000000E+000       1.8174550055E+001       0.0000000000E+000       9.9999999878E-001       1.0000000000E-001       1.0000000000E+000       6.6666666667E-002       1.0000000000E-003       4.6257375694E-002       0.0000000000E+000       1.0000000000E+000       0.0000000000E+000       2.7777777791E-003       4.2930116458E-002
       0.0000000000E+000       1.9064432522E-001       0.0000000000E+000       1.8095897803E+001       0.0000000000E+000       9.9999999878E-001       1.0000000000E-001       1.0000000000E+000       6.6666666667E-002       1.0000000000E-003       4.6033438910E-002       0.0000000000E+000       1.0000000000E+000       0.0000000000E+000       2.7777777791E-003       4.2677269251E-002
       0.0000000000E+000       2.0019531677E-001       0.0000000000E+000       1.8013502725E+001       0.0000000000E+000       9.9999999878E-001       1.0000000000E-001       1.0000000000E+000       6.6666666667E-002       1.0000000000E-003       4.5778206440E-002       0.0000000000E+000       1.0000000000E+000       0.0000000000E+000       2.7777777791E-003       4.2388664891E-002
       0.0000000000E+000       2.0964151104E-001       0.0000000000E+000       1.7927467542E+001       0.0000000000E+000       9.9999999878E-001       1.0000000000E-001       1.0000000000E+000       6.6666666667E-002       1.0000000000E-003       4.5491160461E-002       0.0000000000E+000       1.0000000000E+000       0.0000000000E+000       2.7777777791E-003       4.2063542994E-002
       0.0000000000E+000       2.1897302515E-001       0.0000000000E+000       1.7837898321E+001       0.0000000000E+000       9.9999999878E-001       1.0000000000E-001       1.0000000000E+000       6.6666666667E-002       1.0000000000E-003       4.5171965595E-002       0.0000000000E+000       1.0000000000E+000       0.0000000000E+000       2.7777777791E-003       4.1701319173E-002
       0.0000000000E+000       2.2818049727E-001       0.0000000000E+000       1.7744903350E+001       0.0000000000E+000       9.9999999878E-001       1.0000000000E-001       1.0000000000E+000       6.6666666667E-002       1.0000000000E-003       4.4820468220E-002       0.0000000000E+000       1.0000000000E+000       0.0000000000E+000       2.7777777791E-003       4.1301583202E-002
       0.0000000000E+000       2.3725511815E-001       0.0000000000E+000       1.7648592031E+001       0.0000000000E+000       9.9999999878E-001       1.0000000000E-001       1.0000000000E+000       6.6666666667E-002       1.0000000000E-003       4.4436693853E-002       0.0000000000E+000       1.0000000000E+000       0.0000000000E+000       2.7777777791E-003       4.0864095329E-002
       0.0000000000E+000       2.4618865751E-001       0.0000000000E+000       1.7549073775E+001       0.0000000000E+000       9.9999999878E-001       1.0000000000E-001       1.0000000000E+000       6.6666666667E-002       1.0000000000E-003       4.4020842774E-002       0.0000000000E+000       1.0000000000E+000       0.0000000000E+000       2.7777777791E-003       4.0388780964E-002
       0.0000000000E+000       2.5497348552E-001       0.0000000000E+000       1.7446456916E+001       0.0000000000E+000       9.9999999878E-001       1.0000000000E-001       1.0000000000E+000       6.6666666667E-002       1.0000000000E-003       4.3573284054E-002       0.0000000000E+000       1.0000000000E+000       0.0000000000E+000       2.7777777791E-003       3.9875723930E-002
       0.0000000000E+000       2.6360258909E-001       0.0000000000E+000       1.7340847640E+001       0.0000000000E+000       9.9999999878E-001       1.0000000000E-001       1.0000000000E+000       6.6666666667E-002       1.0000000000E-003       4.3094548167E-002       0.0000000000E+000       1.0000000000E+000       0.0000000000E+000       2.7777777791E-003       3.9325158540E-002
       0.0000000000E+000       2.7206958327E-001       0.0000000000E+000       1.7232348924E+001       0.0000000000E+000       9.9999999878E-001       1.0000000000E-001       1.0000000000E+000       6.6666666667E-002       1.0000000000E-003       4.2585318358E-002       0.0000000000E+000       1.0000000000E+000       0.0000000000E+000       2.7777777791E-003       3.8737460703E-002
       0.0000000000E+000       2.8036871763E-001       0.0000000000E+000       1.7121059482E+001       0.0000000000E+000       9.9999999878E-001       1.0000000000E-001       1.0000000000E+000       6.6666666667E-002       1.0000000000E-003       4.2046420953E-002       0.0000000000E+000       1.0000000000E+000       0.0000000000E+000       2.7777777791E-003       3.8113138334E-002
       0.0000000000E+000       2.8849487814E-001       0.0000000000E+000       1.7007072720E+001       0.0000000000E+000       9.9999999878E-001       1.0000000000E-001       1.0000000000E+000       6.6666666667E-002       1.0000000000E-003       4.1478814777E-002       0.0000000000E+000       1.0000000000E+000       0.0000000000E+000       2.7777777791E-003       3.7452821296E-002
       0.0000000000E+000       2.9644358439E-001       0.0000000000E+000       1.6890475692E+001       0.0000000000E+000       9.9999999878E-001       1.0000000000E-001       1.0000000000E+000       6.6666666667E-002       1.0000000000E-003       4.0883579863E-002       0.0000000000E+000       1.0000000000E+000       0.0000000000E+000       2.7777777791E-003       3.6757251170E-002
       0.0000000000E+000       3.0421098279E-001       0.0000000000E+000       1.6771348051E+001       0.0000000000E+000       9.9999999878E-001       1.0000000000E-001       1.0000000000E+000       6.6666666667E-002       1.0000000000E-003       4.0261905614E-002       0.0000000000E+000       1.0000000000E+000       0.0000000000E+000       2.7777777791E-003       3.6027271106E-002
       0.0000000000E+000       3.1179383578E-001       0.0000000000E+000       1.6649760977E+001       0.0000000000E+000       9.9999999878E-001       1.0000000000E-001       1.0000000000E+000       6.6666666667E-002       1.0000000000E-003       3.9615078581E-002       0.0000000000E+000       1.0000000000E+000       0.0000000000E+000       2.7777777791E-003       3.5263816059E-002
       0.0000000000E+000       3.1918950757E-001       0.0000000000E+000       1.6525776089E+001       0.0000000000E+000       9.9999999878E-001       1.0000000000E-001       1.0000000000E+000       6.6666666667E-002       1.0000000000E-003       3.8944470012E-002       0.0000000000E+000       1.0000000000E+000       0.0000000000E+000       2.7777777791E-003       3.4467903712E-002
       0.0000000000E+000       3.2639594666E-001       0.0000000000E+000       1.6399444315E+001       0.0000000000E+000       9.9999999878E-001       1.0000000000E-001       1.0000000000E+000       6.6666666667E-002       1.0000000000E-003       3.8251523308E-002       0.0000000000E+000       1.0000000000E+000       0.0000000000E+000       2.7777777791E-003       3.3640626394E-002
       0.0000000000E+000       3.3341166559E-001       0.0000000000E+000       1.6270804715E+001       0.0000000000E+000       9.9999999878E-001       1.0000000000E-001       1.0000000000E+000       6.6666666667E-002       1.0000000000E-003       3.7537741528E-002       0.0000000000E+000       1.0000000000E+000       0.0000000000E+000       2.7777777791E-003       3.2783144323E-002
       0.0000000000E+000       3.4023571818E-001       0.0000000000E+000       1.6139883225E+001       0.0000000000E+000       9.9999999878E-001       1.0000000000E-001       1.0000000000E+000       6.6666666667E-002       1.0000000000E-003       3.6804675050E-002       0.0000000000E+000       1.0000000000E+000       0.0000000000E+000       2.7777777791E-003       3.1896680527E-002
       0.0000000000E+000       3.4686767480E-001       0.0000000000E+000       1.6006691333E+001       0.0000000000E+000       9.9999999878E-001       1.0000000000E-001       1.0000000000E+000       6.6666666667E-002       1.0000000000E-003       3.6053909504E-002       0.0000000000E+000       1.0000000000E+000       0.0000000000E+000       2.7777777791E-003       3.0982517770E-002
       0.0000000000E+000       3.5330759591E-001       0.0000000000E+000       1.5871224630E+001       0.0000000000E+000       9.9999999878E-001       1.0000000000E-001       1.0000000000E+000       6.6666666667E-002       1.0000000000E-003       3.5287054072E-002       0.0000000000E+000       1.0000000000E+000       0.0000000000E+000       2.7777777791E-003       3.0041997871E-002
       0.0000000000E+000       3.5955600420E-001       0.0000000000E+000       1.5733461242E+001       0.0000000000E+000       9.9999999878E-001       1.0000000000E-001       1.0000000000E+000       6.6666666667E-002       1.0000000000E-003       3.4505730233E-002       0.0000000000E+000       1.0000000000E+000       0.0000000000E+000       2.7777777791E-003       2.9076523751E-002
       0.0000000000E+000       3.6561385588E-001       0.0000000000E+000       1.5593360100E+001       0.0000000000E+000       9.9999999878E-001       1.0000000000E-001       1.0000000000E+000       6.6666666667E-002       1.0000000000E-003       3.3711561024E-002       0.0000000000E+000       1.0000000000E+000       0.0000000000E+000       2.7777777791E-003       2.8087564569E-002
       0.0000000000E+000       3.7148251118E-001       0.0000000000E+000       1.5450859021E+001       0.0000000000E+000       9.9999999878E-001       1.0000000000E-001       1.0000000000E+000       6.6666666667E-002       1.0000000000E-003       3.2906160873E-002       0.0000000000E+000       1.0000000000E+000       0.0000000000E+000       2.7777777791E-003       2.7076664262E-002
       0.0000000000E+000       3.7716370456E-001       0.0000000000E+000       1.5305872574E+001       0.0000000000E+000       9.9999999878E-001       1.0000000000E-001       1.0000000000E+000       6.6666666667E-002       1.0000000000E-003       3.2091126060E-002       0.0000000000E+000       1.0000000000E+000       0.0000000000E+000       2.7777777791E-003       2.6045453767E-002
       0.0000000000E+000       3.8265951477E-001       0.0000000000E+000       1.5158289684E+001       0.0000000000E+000       9.9999999878E-001       1.0000000000E-001       1.0000000000E+000       6.6666666667E-002       1.0000000000E-003       3.1268025837E-002       0.0000000000E+000       1.0000000000E+000       0.0000000000E+000       2.7777777791E-003       2.4995667097E-002
       0.0000000000E+000       3.8797233517E-001       0.0000000000E+000       1.5007970944E+001       0.0000000000E+000       9.9999999878E-001       1.0000000000E-001       1.0000000000E+000       6.6666666667E-002       1.0000000000E-003       3.0438394232E-002       0.0000000000E+000       1.0000000000E+000       0.0000000000E+000       2.7777777791E-003       2.3929161357E-002
       0.0000000000E+000       3.9310484436E-001       0.0000000000E+000       1.4854745593E+001       0.0000000000E+000       9.9999999878E-001       1.0000000000E-001       1.0000000000E+000       6.6666666667E-002       1.0000000000E-003       2.9603722574E-002       0.0000000000E+000       1.0000000000E+000       0.0000000000E+000       2.7777777791E-003       2.2847940568E-002
       0.0000000000E+000       3.9805997742E-001       0.0000000000E+000       1.4698408110E+001       0.0000000000E+000       9.9999999878E-001       1.0000000000E-001       1.0000000000E+000       6.6666666667E-002       1.0000000000E-003       2.8765452747E-002       0.0000000000E+000       1.0000000000E+000       0.0000000000E+000       2.7777777791E-003       2.1754182957E-002
       0.0000000000E+000       4.0284089799E-001       0.0000000000E+000       1.4538714397E+001       0.0000000000E+000       9.9999999878E-001       1.0000000000E-001       1.0000000000E+000       6.6666666667E-002       1.0000000000E-003       2.7924971202E-002       0.0000000000E+000       1.0000000000E+000       0.0000000000E+000       2.7777777791E-003       2.0650271034E-002
       0.0000000000E+000       4.0745097118E-001       0.0000000000E+000       1.4375377498E+001       0.0000000000E+000       9.9999999878E-001       1.0000000000E-001       1.0000000000E+000       6.6666666667E-002       1.0000000000E-003       2.7083603731E-002       0.0000000000E+000       1.0000000000E+000       0.0000000000E+000       2.7777777791E-003       1.9538823411E-002
       0.0000000000E+000       4.1189373758E-001       0.0000000000E+000       1.4208062843E+001       0.0000000000E+000       9.9999999878E-001       1.0000000000E-001       1.0000000000E+000       6.6666666667E-002       1.0000000000E-003       2.6242611051E-002       0.0000000000E+000       1.0000000000E+000       0.0000000000E+000       2.7777777791E-003       1.8422726802E-002
       0.0000000000E+000       4.1617288839E-001       0.0000000000E+000       1.4036382998E+001       0.0000000000E+000       9.9999999878E-001       1.0000000000E-001       1.0000000000E+000       6.6666666667E-002       1.0000000000E-003       2.5403185208E-002       0.0000000000E+000       1.0000000000E+000       0.0000000000E+000       2.7777777791E-003       1.7305166162E-002
       0.0000000000E+000       4.2029224178E-001       0.0000000000E+000       1.3859891946E+001       0.0000000000E+000       9.9999999878E-001       1.0000000000E-001       1.0000000000E+000       6.6666666667E-002       1.0000000000E-003       2.4566446869E-002       0.0000000000E+000       1.0000000000E+000       0.0000000000E+000       2.7777777791E-003       1.6189650291E-002
       0.0000000000E+000       4.2425572057E-001       0.0000000000E+000       1.3678078966E+001       0.0000000000E+000       9.9999999878E-001       1.0000000000E-001       1.0000000000E+000       6.6666666667E-002       1.0000000000E-003       2.3733443543E-002       0.0000000000E+000       1.0000000000E+000       0.0000000000E+000       2.7777777791E-003       1.5080029703E-002
       0.0000000000E+000       4.2806733114E-001       0.0000000000E+000       1.3490362255E+001       0.0000000000E+000       9.9999999878E-001       1.0000000000E-001       1.0000000000E+000       6.6666666667E-002       1.0000000000E-003       2.2905148841E-002       0.0000000000E+000       1.0000000000E+000       0.0000000000E+000       2.7777777791E-003       1.3980503059E-002
       0.0000000000E+000       4.3173114379E-001       0.0000000000E+000       1.3296082537E+001       0.0000000000E+000       9.9999999878E-001       1.0000000000E-001       1.0000000000E+000       6.6666666667E-002       1.0000000000E-003       2.2082462845E-002       0.0000000000E+000       1.0000000000E+000       0.0000000000E+000       2.7777777791E-003       1.2895608158E-002
       0.0000000000E+000       4.3525127437E-001       0.0000000000E+000       1.3094497083E+001       0.0000000000E+000       9.9999999878E-001       1.0000000000E-001       1.0000000000E+000       6.6666666667E-002       1.0000000000E-003       2.1266213756E-002       0.0000000000E+000       1.0000000000E+000       0.0000000000E+000       2.7777777791E-003       1.1830193463E-002
       0.0000000000E+000       4.3863186730E-001       0.0000000000E+000       1.2884774747E+001       0.0000000000E+000       9.9999999878E-001       1.0000000000E-001       1.0000000000E+000       6.6666666667E-002       1.0000000000E-003       2.0457160936E-002       0.0000000000E+000       1.0000000000E+000       0.0000000000E+000       2.7777777791E-003       1.0789366537E-002
       0.0000000000E+000       4.4187707994E-001       0.0000000000E+000       1.2665992984E+001       0.0000000000E+000       9.9999999878E-001       1.0000000000E-001       1.0000000000E+000       6.6666666667E-002       1.0000000000E-003       1.9655999547E-002       0.0000000000E+000       1.0000000000E+000       0.0000000000E+000       2.7777777791E-003       9.7784166667E-003
       0.0000000000E+000       4.4499106819E-001       0.0000000000E+000       1.2437138164E+001       0.0000000000E+000       9.9999999878E-001       1.0000000000E-001       1.0000000000E+000       6.6666666667E-002       1.0000000000E-003       1.8863366953E-002       0.0000000000E+000       1.0000000000E+000       0.0000000000E+000       2.7777777791E-003       8.8027104557E-003
       0.0000000000E+000       4.4797797343E-001       0.0000000000E+000       1.2197111048E+001       0.0000000000E+000       9.9999999878E-001       1.0000000000E-001       1.0000000000E+000       6.6666666667E-002       1.0000000000E-003       1.8079851058E-002       0.0000000000E+000       1.0000000000E+000       0.0000000000E+000       2.7777777791E-003       7.8675612462E-003
       0.0000000000E+000       4.5084191063E-001       0.0000000000E+000       1.1944739836E+001       0.0000000000E+000       9.9999999878E-001       1.0000000000E-001       1.0000000000E+000       6.6666666667E-002       1.0000000000E-003       1.7306000714E-002       0.0000000000E+000       1.0000000000E+000       0.0000000000E+000       2.7777777791E-003       6.9780757729E-003
       0.0000000000E+000       4.5358695766E-001       0.0000000000E+000       1.1678803854E+001       0.0000000000E+000       9.9999999878E-001       1.0000000000E-001       1.0000000000E+000       6.6666666667E-002       1.0000000000E-003       1.6542338250E-002       0.0000000000E+000       1.0000000000E+000       0.0000000000E+000       2.7777777791E-003       6.1389842866E-003
       0.0000000000E+000       4.5621714576E-001       0.0000000000E+000       1.1398071386E+001       0.0000000000E+000       9.9999999878E-001       1.0000000000E-001       1.0000000000E+000       6.6666666667E-002       1.0000000000E-003       1.5789373986E-002       0.0000000000E+000       1.0000000000E+000       0.0000000000E+000       2.7777777791E-003       5.3544631428E-003
       0.0000000000E+000       4.5873645099E-001       0.0000000000E+000       1.1101355263E+001       0.0000000000E+000       9.9999999878E-001       1.0000000000E-001       1.0000000000E+000       6.6666666667E-002       1.0000000000E-003       1.5047622371E-002       0.0000000000E+000       1.0000000000E+000       0.0000000000E+000       2.7777777791E-003       4.6279611635E-003
       0.0000000000E+000       4.6114878677E-001       0.0000000000E+000       1.0787589126E+001       0.0000000000E+000       9.9999999878E-001       1.0000000000E-001       1.0000000000E+000       6.6666666667E-002       1.0000000000E-003       1.4317618977E-002       0.0000000000E+000       1.0000000000E+000       0.0000000000E+000       2.7777777791E-003       3.9620425582E-003
       0.0000000000E+000       4.6345799731E-001       0.0000000000E+000       1.0455925221E+001       0.0000000000E+000       9.9999999878E-001       1.0000000000E-001       1.0000000000E+000       6.6666666667E-002       1.0000000000E-003       1.3599937056E-002       0.0000000000E+000       1.0000000000E+000       0.0000000000E+000       2.7777777791E-003       3.3582594875E-003
       0.0000000000E+000       4.6566785199E-001       0.0000000000E+000       1.0105850787E+001       0.0000000000E+000       9.9999999878E-001       1.0000000000E-001       1.0000000000E+000       6.6666666667E-002       1.0000000000E-003       1.2895201752E-002       0.0000000000E+000       1.0000000000E+000       0.0000000000E+000       2.7777777791E-003       2.8170663143E-003
       0.0000000000E+000       4.6778204052E-001       0.0000000000E+000       9.7373142333E+000       0.0000000000E+000       9.9999999878E-001       1.0000000000E-001       1.0000000000E+000       6.6666666667E-002       1.0000000000E-003       1.2204099387E-002       0.0000000000E+000       1.0000000000E+000       0.0000000000E+000       2.7777777791E-003       2.3377851987E-003
       0.0000000000E+000       4.6980416890E-001       0.0000000000E+000       9.3508452614E+000       0.0000000000E+000       9.9999999878E-001       1.0000000000E-001       1.0000000000E+000       6.6666666667E-002       1.0000000000E-003       1.1527378836E-002       0.0000000000E+000       1.0000000000E+000       0.0000000000E+000       2.7777777791E-003       1.9186291340E-003
       0.0000000000E+000       4.7173775606E-001       0.0000000000E+000       8.9476465893E+000       0.0000000000E+000       9.9999999878E-001       1.0000000000E-001       1.0000000000E+000       6.6666666667E-002       1.0000000000E-003       1.0865842159E-002       0.0000000000E+000       1.0000000000E+000       0.0000000000E+000       2.7777777791E-003       1.5567840504E-003
       0.0000000000E+000       4.7358623122E-001       0.0000000000E+000       8.5296322826E+000       0.0000000000E+000       9.9999999878E-001       1.0000000000E-001       1.0000000000E+000       6.6666666667E-002       1.0000000000E-003       1.0220322774E-002       0.0000000000E+000       1.0000000000E+000       0.0000000000E+000       2.7777777791E-003       1.2485465125E-003
       0.0000000000E+000       4.7535293177E-001       0.0000000000E+000       8.0993921025E+000       0.0000000000E+000       9.9999999878E-001       1.0000000000E-001       1.0000000000E+000       6.6666666667E-002       1.0000000000E-003       9.5916517574E-003       0.0000000000E+000       1.0000000000E+000       0.0000000000E+000       2.7777777791E-003       9.8950810231E-004
       0.0000000000E+000       4.7704110176E-001       0.0000000000E+000       7.6600740674E+000       0.0000000000E+000       9.9999999878E-001       1.0000000000E-001       1.0000000000E+000       6.6666666667E-002       1.0000000000E-003       8.9806159472E-003       0.0000000000E+000       1.0000000000E+000       0.0000000000E+000       2.7777777791E-003       7.7477227011E-004
       0.0000000000E+000       4.7865389090E-001       0.0000000000E+000       7.2151960362E+000       0.0000000000E+000       9.9999999878E-001       1.0000000000E-001       1.0000000000E+000       6.6666666667E-002       1.0000000000E-003       8.3879142604E-003       0.0000000000E+000       1.0000000000E+000       0.0000000000E+000       2.7777777791E-003       5.9918510109E-004
       0.0000000000E+000       4.8019435391E-001       0.0000000000E+000       6.7684150952E+000       0.0000000000E+000       9.9999999878E-001       1.0000000000E-001       1.0000000000E+000       6.6666666667E-002       1.0000000000E-003       7.8141197283E-003       0.0000000000E+000       1.0000000000E+000       0.0000000000E+000       2.7777777791E-003       4.5755935912E-004