 VARIABLES ="X","Y","U","W","C","T","k","eps", "v2","omega","nuSA","yplus","RHO","Pe","mu","mut"
 ZONE I=            98  J=           200  F=POINT 
       0.0000000000E+000      -4.6333968368E-003       0.0000000000E+000       1.8409712154E+001       0.0000000000E+000       9.9999999878E-001       9.4200160780E-001       2.1518210997E+000       6.6666666667E-002       1.0000000000E-003       1.0000000000E-003       0.0000000000E+000       1.0000000000E+000       0.0000000000E+000       2.7777777791E-003       4.3895672833E-002
       0.0000000000E+000       4.6333968368E-003       0.0000000000E+000       1.8409712154E+001       0.0000000000E+000       9.9999999878E-001       9.4200160780E-001       2.1518210997E+000       6.6666666667E-002       1.0000000000E-003       1.0000000000E-003       0.0000000000E+000       1.0000000000E+000       0.0000000000E+000       2.7777777791E-003       4.3895672833E-002
       0.0000000000E+000       1.3960125430E-002       0.0000000000E+000       1.8406002750E+001       0.0000000000E+000       9.9999999878E-001       9.4472800802E-001       2.1622935127E+000       6.6666666667E-002       1.0000000000E-003       1.0000000000E-003       0.0000000000E+000       1.0000000000E+000       0.0000000000E+000       2.7777777791E-003       4.3748521905E-002
       0.0000000000E+000       2.3401918894E-002       0.0000000000E+000       1.8398421976E+001       0.0000000000E+000       9.9999999878E-001       9.5029246764E-001       2.1837227170E+000       6.6666666667E-002       1.0000000000E-003       1.0000000000E-003       0.0000000000E+000       1.0000000000E+000       0.0000000000E+000       2.7777777791E-003       4.3626850729E-002
       0.0000000000E+000       3.2948914513E-002       0.0000000000E+000       1.8386826977E+001       0.0000000000E+000       9.9999999878E-001       9.5878498285E-001       2.2165720497E+000       6.6666666667E-002       1.0000000000E-003       1.0000000000E-003       0.0000000000E+000       1.0000000000E+000       0.0000000000E+000       2.7777777791E-003       4.3530515565E-002
       0.0000000000E+000       4.2590763245E-002       0.0000000000E+000       1.8371096011E+001       0.0000000000E+000       9.9999999878E-001       9.7027178082E-001       2.2612812533E+000       6.6666666667E-002       1.0000000000E-003       1.0000000000E-003       0.0000000000E+000       1.0000000000E+000       0.0000000000E+000       2.7777777791E-003       4.3458831418E-002
       0.0000000000E+000       5.2316670463E-002       0.0000000000E+000       1.8351129986E+001       0.0000000000E+000       9.9999999878E-001       9.8479388329E-001       2.3182646444E+000       6.6666666667E-002       1.0000000000E-003       1.0000000000E-003       0.0000000000E+000       1.0000000000E+000       0.0000000000E+000       2.7777777791E-003       4.3410509373E-002
       0.0000000000E+000       6.2115441043E-002       0.0000000000E+000       1.8326853452E+001       0.0000000000E+000       9.9999999878E-001       1.0023664211E+000       2.3879101252E+000       6.6666666667E-002       1.0000000000E-003       1.0000000000E-003       0.0000000000E+000       1.0000000000E+000       0.0000000000E+000       2.7777777791E-003       4.3383602431E-002
       0.0000000000E+000       7.1975528421E-002       0.0000000000E+000       1.8298214974E+001       0.0000000000E+000       9.9999999878E-001       1.0229787560E+000       2.4705792462E+000       6.6666666667E-002       1.0000000000E-003       1.0000000000E-003       0.0000000000E+000       1.0000000000E+000       0.0000000000E+000       2.7777777791E-003       4.3375469606E-002
       0.0000000000E+000       8.1885087210E-002       0.0000000000E+000       1.8265186856E+001       0.0000000000E+000       9.9999999878E-001       1.0465954140E+000       2.5666084983E+000       6.6666666667E-002       1.0000000000E-003       1.0000000000E-003       0.0000000000E+000       1.0000000000E+000       0.0000000000E+000       2.7777777791E-003       4.3382767487E-002
       0.0000000000E+000       9.1832028879E-002       0.0000000000E+000       1.8227764240E+001       0.0000000000E+000       9.9999999878E-001       1.0731577756E+000       2.6763119434E+000       6.6666666667E-002       1.0000000000E-003       1.0000000000E-003       0.0000000000E+000       1.0000000000E+000       0.0000000000E+000       2.7777777791E-003       4.3401475711E-002
       0.0000000000E+000       1.0180407995E-001       0.0000000000E+000       1.8185963604E+001       0.0000000000E+000       9.9999999878E-001       1.1025864176E+000       2.7999851931E+000       6.6666666667E-002       1.0000000000E-003       1.0000000000E-003       0.0000000000E+000       1.0000000000E+000       0.0000000000E+000       2.7777777791E-003       4.3426958604E-002
       0.0000000000E+000       1.1178884212E-001       0.0000000000E+000       1.8139820784E+001       0.0000000000E+000       9.9999999878E-001       1.1347839531E+000       2.9379106430E+000       6.6666666667E-002       1.0000000000E-003       1.0000000000E-003       0.0000000000E+000       1.0000000000E+000       0.0000000000E+000       2.7777777791E-003       4.3454060645E-002
       0.0000000000E+000       1.2177385375E-001       0.0000000000E+000       1.8089388614E+001       0.0000000000E+000       9.9999999878E-001       1.1696381940E+000       3.0903637703E+000       6.6666666667E-002       1.0000000000E-003       1.0000000000E-003       0.0000000000E+000       1.0000000000E+000       0.0000000000E+000       2.7777777791E-003       4.3477229381E-002
       0.0000000000E+000       1.3174665193E-001       0.0000000000E+000       1.8034734340E+001       0.0000000000E+000       9.9999999878E-001       1.2070254505E+000       3.2576202312E+000       6.6666666667E-002       1.0000000000E-003       1.0000000000E-003       0.0000000000E+000       1.0000000000E+000       0.0000000000E+000       2.7777777791E-003       4.3490656777E-002
       0.0000000000E+000       1.4169483466E-001       0.0000000000E+000       1.7975936921E+001       0.0000000000E+000       9.9999999878E-001       1.2468137948E+000       3.4399634576E+000       6.6666666667E-002       1.0000000000E-003       1.0000000000E-003       0.0000000000E+000       1.0000000000E+000       0.0000000000E+000       2.7777777791E-003       4.3488428994E-002
       0.0000000000E+000       1.5160612229E-001       0.0000000000E+000       1.7913084357E+001       0.0000000000E+000       9.9999999878E-001       1.2888661414E+000       3.6376924543E+000       6.6666666667E-002       1.0000000000E-003       1.0000000000E-003       0.0000000000E+000       1.0000000000E+000       0.0000000000E+000       2.7777777791E-003       4.3464675035E-002
       0.0000000000E+000       1.6146841776E-001       0.0000000000E+000       1.7846271131E+001       0.0000000000E+000       9.9999999878E-001       1.3330430307E+000       3.8511295252E+000       6.6666666667E-002       1.0000000000E-003       1.0000000000E-003       0.0000000000E+000       1.0000000000E+000       0.0000000000E+000       2.7777777791E-003       4.3413706257E-002
       0.0000000000E+000       1.7126986487E-001       0.0000000000E+000       1.7775595839E+001       0.0000000000E+000       9.9999999878E-001       1.3792050429E+000       4.0806277111E+000       6.6666666667E-002       1.0000000000E-003       1.0000000000E-003       0.0000000000E+000       1.0000000000E+000       0.0000000000E+000       2.7777777791E-003       4.3330140860E-002
       0.0000000000E+000       1.8099890407E-001       0.0000000000E+000       1.7701159061E+001       0.0000000000E+000       9.9999999878E-001       1.4272147993E+000       4.3265777815E+000       6.6666666667E-002       1.0000000000E-003       1.0000000000E-003       0.0000000000E+000       1.0000000000E+000       0.0000000000E+000       2.7777777791E-003       4.3209009643E-002
       0.0000000000E+000       1.9064432522E-001       0.0000000000E+000       1.7623061480E+001       0.0000000000E+000       9.9999999878E-001       1.4769385461E+000       4.5894146886E+000       6.6666666667E-002       1.0000000000E-003       1.0000000000E-003       0.0000000000E+000       1.0000000000E+000       0.0000000000E+000       2.7777777791E-003       4.3045841328E-002
       0.0000000000E+000       2.0019531677E-001       0.0000000000E+000       1.7541402273E+001       0.0000000000E+000       9.9999999878E-001       1.5282473314E+000       4.8696234431E+000       6.6666666667E-002       1.0000000000E-003       1.0000000000E-003       0.0000000000E+000       1.0000000000E+000       0.0000000000E+000       2.7777777791E-003       4.2836727331E-002
       0.0000000000E+000       2.0964151104E-001       0.0000000000E+000       1.7456277736E+001       0.0000000000E+000       9.9999999878E-001       1.5810178083E+000       5.1677444216E+000       6.6666666667E-002       1.0000000000E-003       1.0000000000E-003       0.0000000000E+000       1.0000000000E+000       0.0000000000E+000       2.7777777791E-003       4.2578366972E-002
       0.0000000000E+000       2.1897302515E-001       0.0000000000E+000       1.7367780151E+001       0.0000000000E+000       9.9999999878E-001       1.6351327028E+000       5.4843781467E+000       6.6666666667E-002       1.0000000000E-003       1.0000000000E-003       0.0000000000E+000       1.0000000000E+000       0.0000000000E+000       2.7777777791E-003       4.2268094855E-002
       0.0000000000E+000       2.2818049727E-001       0.0000000000E+000       1.7275996838E+001       0.0000000000E+000       9.9999999878E-001       1.6904809908E+000       5.8201896021E+000       6.6666666667E-002       1.0000000000E-003       1.0000000000E-003       0.0000000000E+000       1.0000000000E+000       0.0000000000E+000       2.7777777791E-003       4.1903892484E-002
       0.0000000000E+000       2.3725511815E-001       0.0000000000E+000       1.7181009391E+001       0.0000000000E+000       9.9999999878E-001       1.7469578274E+000       6.1759121590E+000       6.6666666667E-002       1.0000000000E-003       1.0000000000E-003       0.0000000000E+000       1.0000000000E+000       0.0000000000E+000       2.7777777791E-003       4.1484386324E-002
       0.0000000000E+000       2.4618865751E-001       0.0000000000E+000       1.7082893049E+001       0.0000000000E+000       9.9999999878E-001       1.8044642692E+000       6.5523511911E+000       6.6666666667E-002       1.0000000000E-003       1.0000000000E-003       0.0000000000E+000       1.0000000000E+000       0.0000000000E+000       2.7777777791E-003       4.1008834434E-002
       0.0000000000E+000       2.5497348552E-001       0.0000000000E+000       1.6981716189E+001       0.0000000000E+000       9.9999999878E-001       1.8629068269E+000       6.9503874551E+000       6.6666666667E-002       1.0000000000E-003       1.0000000000E-003       0.0000000000E+000       1.0000000000E+000       0.0000000000E+000       2.7777777791E-003       4.0477103658E-002
       0.0000000000E+000       2.6360258909E-001       0.0000000000E+000       1.6877539902E+001       0.0000000000E+000       9.9999999878E-001       1.9221968764E+000       7.3709803047E+000       6.6666666667E-002       1.0000000000E-003       1.0000000000E-003       0.0000000000E+000       1.0000000000E+000       0.0000000000E+000       2.7777777791E-003       3.9889639175E-002
       0.0000000000E+000       2.7206958327E-001       0.0000000000E+000       1.6770417649E+001       0.0000000000E+000       9.9999999878E-001       1.9822499566E+000       7.8151707985E+000       6.6666666667E-002       1.0000000000E-003       1.0000000000E-003       0.0000000000E+000       1.0000000000E+000       0.0000000000E+000       2.7777777791E-003       3.9247427980E-002
       0.0000000000E+000       2.8036871763E-001       0.0000000000E+000       1.6660394957E+001       0.0000000000E+000       9.9999999878E-001       2.0429849700E+000       8.2840847488E+000       6.6666666667E-002       1.0000000000E-003       1.0000000000E-003       0.0000000000E+000       1.0000000000E+000       0.0000000000E+000       2.7777777791E-003       3.8551957686E-002
       0.0000000000E+000       2.8849487814E-001       0.0000000000E+000       1.6547509159E+001       0.0000000000E+000       9.9999999878E-001       2.1043233031E+000       8.7789357495E+000       6.6666666667E-002       1.0000000000E-003       1.0000000000E-003       0.0000000000E+000       1.0000000000E+000       0.0000000000E+000       2.7777777791E-003       3.7805171858E-002
       0.0000000000E+000       2.9644358439E-001       0.0000000000E+000       1.6431789142E+001       0.0000000000E+000       9.9999999878E-001       2.1661878745E+000       9.3010282031E+000       6.6666666667E-002       1.0000000000E-003       1.0000000000E-003       0.0000000000E+000       1.0000000000E+000       0.0000000000E+000       2.7777777791E-003       3.7009422940E-002
       0.0000000000E+000       3.0421098279E-001       0.0000000000E+000       1.6313255115E+001       0.0000000000E+000       9.9999999878E-001       2.2285021172E+000       9.8517603585E+000       6.6666666667E-002       1.0000000000E-003       1.0000000000E-003       0.0000000000E+000       1.0000000000E+000       0.0000000000E+000       2.7777777791E-003       3.6167423703E-002
       0.0000000000E+000       3.1179383578E-001       0.0000000000E+000       1.6191918359E+001       0.0000000000E+000       9.9999999878E-001       2.2911888955E+000       1.0432627353E+001       6.6666666667E-002       1.0000000000E-003       1.0000000000E-003       0.0000000000E+000       1.0000000000E+000       0.0000000000E+000       2.7777777791E-003       3.5282198046E-002
       0.0000000000E+000       3.1918950757E-001       0.0000000000E+000       1.6067780969E+001       0.0000000000E+000       9.9999999878E-001       2.3541693566E+000       1.1045224236E+001       6.6666666667E-002       1.0000000000E-003       1.0000000000E-003       0.0000000000E+000       1.0000000000E+000       0.0000000000E+000       2.7777777791E-003       3.4357031879E-002
       0.0000000000E+000       3.2639594666E-001       0.0000000000E+000       1.5940835574E+001       0.0000000000E+000       9.9999999878E-001       2.4173617107E+000       1.1691248931E+001       6.6666666667E-002       1.0000000000E-003       1.0000000000E-003       0.0000000000E+000       1.0000000000E+000       0.0000000000E+000       2.7777777791E-003       3.3395424745E-002
       0.0000000000E+000       3.3341166559E-001       0.0000000000E+000       1.5811065017E+001       0.0000000000E+000       9.9999999878E-001       2.4806799326E+000       1.2372505078E+001       6.6666666667E-002       1.0000000000E-003       1.0000000000E-003       0.0000000000E+000       1.0000000000E+000       0.0000000000E+000       2.7777777791E-003       3.2401042765E-002
       0.0000000000E+000       3.4023571818E-001       0.0000000000E+000       1.5678441995E+001       0.0000000000E+000       9.9999999878E-001       2.5440323748E+000       1.3090904645E+001       6.6666666667E-002       1.0000000000E-003       1.0000000000E-003       0.0000000000E+000       1.0000000000E+000       0.0000000000E+000       2.7777777791E-003       3.1377673436E-002
       0.0000000000E+000       3.4686767480E-001       0.0000000000E+000       1.5542928651E+001       0.0000000000E+000       9.9999999878E-001       2.6073202794E+000       1.3848470197E+001       6.6666666667E-002       1.0000000000E-003       1.0000000000E-003       0.0000000000E+000       1.0000000000E+000       0.0000000000E+000       2.7777777791E-003       3.0329182719E-002
       0.0000000000E+000       3.5330759591E-001       0.0000000000E+000       1.5404476096E+001       0.0000000000E+000       9.9999999878E-001       2.6704361721E+000       1.4647336611E+001       6.6666666667E-002       1.0000000000E-003       1.0000000000E-003       0.0000000000E+000       1.0000000000E+000       0.0000000000E+000       2.7777777791E-003       2.9259474848E-002
       0.0000000000E+000       3.5955600420E-001       0.0000000000E+000       1.5263023871E+001       0.0000000000E+000       9.9999999878E-001       2.7332621218E+000       1.5489752013E+001       6.6666666667E-002       1.0000000000E-003       1.0000000000E-003       0.0000000000E+000       1.0000000000E+000       0.0000000000E+000       2.7777777791E-003       2.8172455172E-002
       0.0000000000E+000       3.6561385588E-001       0.0000000000E+000       1.5118499320E+001       0.0000000000E+000       9.9999999878E-001       2.7956678434E+000       1.6378077567E+001       6.6666666667E-002       1.0000000000E-003       1.0000000000E-003       0.0000000000E+000       1.0000000000E+000       0.0000000000E+000       2.7777777791E-003       2.7071996330E-002
       0.0000000000E+000       3.7148251118E-001       0.0000000000E+000       1.4970816873E+001       0.0000000000E+000       9.9999999878E-001       2.8575086199E+000       1.7314785673E+001       6.6666666667E-002       1.0000000000E-003       1.0000000000E-003       0.0000000000E+000       1.0000000000E+000       0.0000000000E+000       2.7777777791E-003       2.5961907981E-002
       0.0000000000E+000       3.7716370456E-001       0.0000000000E+000       1.4819877232E+001       0.0000000000E+000       9.9999999878E-001       2.9186230170E+000       1.8302455938E+001       6.6666666667E-002       1.0000000000E-003       1.0000000000E-003       0.0000000000E+000       1.0000000000E+000       0.0000000000E+000       2.7777777791E-003       2.4845910244E-002
       0.0000000000E+000       3.8265951477E-001       0.0000000000E+000       1.4665566433E+001       0.0000000000E+000       9.9999999878E-001       2.9788303602E+000       1.9343768090E+001       6.6666666667E-002       1.0000000000E-003       1.0000000000E-003       0.0000000000E+000       1.0000000000E+000       0.0000000000E+000       2.7777777791E-003       2.3727610970E-002
       0.0000000000E+000       3.8797233517E-001       0.0000000000E+000       1.4507754791E+001       0.0000000000E+000       9.9999999878E-001       3.0379279404E+000       2.0441490723E+001       6.6666666667E-002       1.0000000000E-003       1.0000000000E-003       0.0000000000E+000       1.0000000000E+000       0.0000000000E+000       2.7777777791E-003       2.2610486868E-002
       0.0000000000E+000       3.9310484436E-001       0.0000000000E+000       1.4346295701E+001       0.0000000000E+000       9.9999999878E-001       3.0956879125E+000       2.1598464402E+001       6.6666666667E-002       1.0000000000E-003       1.0000000000E-003       0.0000000000E+000       1.0000000000E+000       0.0000000000E+000       2.7777777791E-003       2.1497868488E-002
       0.0000000000E+000       3.9805997742E-001       0.0000000000E+000       1.4181024299E+001       0.0000000000E+000       9.9999999878E-001       3.1518538497E+000       2.2817577199E+001       6.6666666667E-002       1.0000000000E-003       1.0000000000E-003       0.0000000000E+000       1.0000000000E+000       0.0000000000E+000       2.7777777791E-003       2.0392928968E-002
       0.0000000000E+000       4.0284089799E-001       0.0000000000E+000       1.4011755955E+001       0.0000000000E+000       9.9999999878E-001       3.2061369162E+000       2.4101730142E+001       6.6666666667E-002       1.0000000000E-003       1.0000000000E-003       0.0000000000E+000       1.0000000000E+000       0.0000000000E+000       2.7777777791E-003       1.9298676394E-002
       0.0000000000E+000       4.0745097118E-001       0.0000000000E+000       1.3838284609E+001       0.0000000000E+000       9.9999999878E-001       3.2582116215E+000       2.5453789322E+001       6.6666666667E-002       1.0000000000E-003       1.0000000000E-003       0.0000000000E+000       1.0000000000E+000       0.0000000000E+000       2.7777777791E-003       1.8217949587E-002
       0.0000000000E+000       4.1189373758E-001       0.0000000000E+000       1.3660380942E+001       0.0000000000E+000       9.9999999878E-001       3.3077111288E+000       2.6876520516E+001       6.6666666667E-002       1.0000000000E-003       1.0000000000E-003       0.0000000000E+000       1.0000000000E+000       0.0000000000E+000       2.7777777791E-003       1.7153417026E-002
       0.0000000000E+000       4.1617288839E-001       0.0000000000E+000       1.3477790377E+001       0.0000000000E+000       9.9999999878E-001       3.3542220999E+000       2.8372501046E+001       6.6666666667E-002       1.0000000000E-003       1.0000000000E-003       0.0000000000E+000       1.0000000000E+000       0.0000000000E+000       2.7777777791E-003       1.6107578601E-002
       0.0000000000E+000       4.2029224178E-001       0.0000000000E+000       1.3290230935E+001       0.0000000000E+000       9.9999999878E-001       3.3972790815E+000       2.9944002317E+001       6.6666666667E-002       1.0000000000E-003       1.0000000000E-003       0.0000000000E+000       1.0000000000E+000       0.0000000000E+000       2.7777777791E-003       1.5082769812E-002
       0.0000000000E+000       4.2425572057E-001       0.0000000000E+000       1.3097390972E+001       0.0000000000E+000       9.9999999878E-001       3.4363584733E+000       3.1592834936E+001       6.6666666667E-002       1.0000000000E-003       1.0000000000E-003       0.0000000000E+000       1.0000000000E+000       0.0000000000E+000       2.7777777791E-003       1.4081168005E-002
       0.0000000000E+000       4.2806733114E-001       0.0000000000E+000       1.2898926835E+001       0.0000000000E+000       9.9999999878E-001       3.4708721722E+000       3.3320146626E+001       6.6666666667E-002       1.0000000000E-003       1.0000000000E-003       0.0000000000E+000       1.0000000000E+000       0.0000000000E+000       2.7777777791E-003       1.3104800194E-002
       0.0000000000E+000       4.3173114379E-001       0.0000000000E+000       1.2694460522E+001       0.0000000000E+000       9.9999999878E-001       3.5001610672E+000       3.5126161391E+001       6.6666666667E-002       1.0000000000E-003       1.0000000000E-003       0.0000000000E+000       1.0000000000E+000       0.0000000000E+000       2.7777777791E-003       1.2155552012E-002
       0.0000000000E+000       4.3525127437E-001       0.0000000000E+000       1.2483577462E+001       0.0000000000E+000       9.9999999878E-001       3.5234886810E+000       3.7009846729E+001       6.6666666667E-002       1.0000000000E-003       1.0000000000E-003       0.0000000000E+000       1.0000000000E+000       0.0000000000E+000       2.7777777791E-003       1.1235177319E-002
       0.0000000000E+000       4.3863186730E-001       0.0000000000E+000       1.2265824582E+001       0.0000000000E+000       9.9999999878E-001       3.5400354206E+000       3.8968494481E+001       6.6666666667E-002       1.0000000000E-003       1.0000000000E-003       0.0000000000E+000       1.0000000000E+000       0.0000000000E+000       2.7777777791E-003       1.0345308000E-002
       0.0000000000E+000       4.4187707994E-001       0.0000000000E+000       1.2040708917E+001       0.0000000000E+000       9.9999999878E-001       3.5488941387E+000       4.0997200769E+001       6.6666666667E-002       1.0000000000E-003       1.0000000000E-003       0.0000000000E+000       1.0000000000E+000       0.0000000000E+000       2.7777777791E-003       9.4874635059E-003
       0.0000000000E+000       4.4499106819E-001       0.0000000000E+000       1.1807697114E+001       0.0000000000E+000       9.9999999878E-001       3.5490680250E+000       4.3088232281E+001       6.6666666667E-002       1.0000000000E-003       1.0000000000E-003       0.0000000000E+000       1.0000000000E+000       0.0000000000E+000       2.7777777791E-003       8.6630596941E-003
       0.0000000000E+000       4.4797797343E-001       0.0000000000E+000       1.1566216327E+001       0.0000000000E+000       9.9999999878E-001       3.5394722693E+000       4.5230271389E+001       6.6666666667E-002       1.0000000000E-003       1.0000000000E-003       0.0000000000E+000       1.0000000000E+000       0.0000000000E+000       2.7777777791E-003       7.8734165122E-003
       0.0000000000E+000       4.5084191063E-001       0.0000000000E+000       1.1315657184E+001       0.0000000000E+000       9.9999999878E-001       3.5189414713E+000       4.7407543258E+001       6.6666666667E-002       1.0000000000E-003       1.0000000000E-003       0.0000000000E+000       1.0000000000E+000       0.0000000000E+000       2.7777777791E-003       7.1197640565E-003
       0.0000000000E+000       4.5358695766E-001       0.0000000000E+000       1.1055379743E+001       0.0000000000E+000       9.9999999878E-001       3.4862454004E+000       4.9598847055E+001       6.6666666667E-002       1.0000000000E-003       1.0000000000E-003       0.0000000000E+000       1.0000000000E+000       0.0000000000E+000       2.7777777791E-003       6.4032464269E-003
       0.0000000000E+000       4.5621714576E-001       0.0000000000E+000       1.0784723601E+001       0.0000000000E+000       9.9999999878E-001       3.4401163978E+000       5.1776543937E+001       6.6666666667E-002       1.0000000000E-003       1.0000000000E-003       0.0000000000E+000       1.0000000000E+000       0.0000000000E+000       2.7777777791E-003       5.7249226532E-003
       0.0000000000E+000       4.5873645099E-001       0.0000000000E+000       1.0503023674E+001       0.0000000000E+000       9.9999999878E-001       3.3792923256E+000       5.3905600239E+001       6.6666666667E-002       1.0000000000E-003       1.0000000000E-003       0.0000000000E+000       1.0000000000E+000       0.0000000000E+000       2.7777777791E-003       5.0857637051E-003
       0.0000000000E+000       4.6114878677E-001       0.0000000000E+000       1.0209633391E+001       0.0000000000E+000       9.9999999878E-001       3.3025792820E+000       5.5942847272E+001       6.6666666667E-002       1.0000000000E-003       1.0000000000E-003       0.0000000000E+000       1.0000000000E+000       0.0000000000E+000       2.7777777791E-003       4.4866442471E-003
       0.0000000000E+000       4.6345799731E-001       0.0000000000E+000       9.9039572241E+000       0.0000000000E+000       9.9999999878E-001       3.2089379135E+000       5.7836697561E+001       6.6666666667E-002       1.0000000000E-003       1.0000000000E-003       0.0000000000E+000       1.0000000000E+000       0.0000000000E+000       2.7777777791E-003       3.9283273822E-003
       0.0000000000E+000       4.6566785199E-001       0.0000000000E+000       9.5854943526E+000       0.0000000000E+000       9.9999999878E-001       3.0975954790E+000       5.9527640353E+001       6.6666666667E-002       1.0000000000E-003       1.0000000000E-003       0.0000000000E+000       1.0000000000E+000       0.0000000000E+000       2.7777777791E-003       3.4114402528E-003
       0.0000000000E+000       4.6778204052E-001       0.0000000000E+000       9.2538945391E+000       0.0000000000E+000       9.9999999878E-001       2.9681821398E+000       6.0949901652E+001       6.6666666667E-002       1.0000000000E-003       1.0000000000E-003       0.0000000000E+000       1.0000000000E+000       0.0000000000E+000       2.7777777791E-003       2.9364382469E-003
       0.0000000000E+000       4.6980416890E-001       0.0000000000E+000       8.9090257545E+000       0.0000000000E+000       9.9999999878E-001       2.8208836321E+000       6.2034650628E+001       6.6666666667E-002       1.0000000000E-003       1.0000000000E-003       0.0000000000E+000       1.0000000000E+000       0.0000000000E+000       2.7777777791E-003       2.5035560539E-003
       0.0000000000E+000       4.7173775606E-001       0.0000000000E+000       8.5510503516E+000       0.0000000000E+000       9.9999999878E-001       2.6565934776E+000       6.2715002563E+001       6.6666666667E-002       1.0000000000E-003       1.0000000000E-003       0.0000000000E+000       1.0000000000E+000       0.0000000000E+000       2.7777777791E-003       2.1127453751E-003
       0.0000000000E+000       4.7358623122E-001       0.0000000000E+000       8.1805026492E+000       0.0000000000E+000       9.9999999878E-001       2.4770375288E+000       6.2932747886E+001       6.6666666667E-002       1.0000000000E-003       1.0000000000E-003       0.0000000000E+000       1.0000000000E+000       0.0000000000E+000       2.7777777791E-003       1.7636021434E-003
       0.0000000000E+000       4.7535293177E-001       0.0000000000E+000       7.7983562044E+000       0.0000000000E+000       9.9999999878E-001       2.2848352964E+000       6.2646212905E+001       6.6666666667E-002       1.0000000000E-003       1.0000000000E-003       0.0000000000E+000       1.0000000000E+000       0.0000000000E+000       2.7777777791E-003       1.4552906518E-003
       0.0000000000E+000       4.7704110176E-001       0.0000000000E+000       7.4060652373E+000       0.0000000000E+000       9.9999999878E-001       2.0834615612E+000       6.1838024074E+001       6.6666666667E-002       1.0000000000E-003       1.0000000000E-003       0.0000000000E+000       1.0000000000E+000       0.0000000000E+000       2.7777777791E-003       1.1864772218E-003
       0.0000000000E+000       4.7865389090E-001       0.0000000000E+000       7.0055639011E+000       0.0000000000E+000       9.9999999878E-001       1.8770836744E+000       6.0521042101E+001       6.6666666667E-002       1.0000000000E-003       1.0000000000E-003       0.0000000000E+000       1.0000000000E+000       0.0000000000E+000       2.7777777791E-003       9.5529002403E-004
       0.0000000000E+000       4.8019435391E-001       0.0000000000E+000       6.5992115455E+000       0.0000000000E+000       9.9999999878E-001       1.6702763606E+000       5.8740680261E+001       6.6666666667E-002       1.0000000000E-003       1.0000000000E-003       0.0000000000E+000       1.0000000000E+000       0.0000000000E+000       2.7777777791E-003       7.5932175455E-004