 VARIABLES ="X","Y","U","W","C","T","k","eps", "v2","omega","nuSA","yplus","RHO","Pe","mu","mut"
 ZONE I=            98  J=           104  F=POINT 
       0.0000000000E+000      -4.6333968368E-003       0.0000000000E+000       1.8414540960E+001       0.0000000000E+000       9.9999999878E-001       9.4016090572E-001       2.1495253465E+000       6.6666666667E-002       1.0000000000E-003       1.0000000000E-003       0.0000000000E+000       1.0000000003E+000       0.0000000000E+000       2.7777777791E-003       4.3785108804E-002
       0.0000000000E+000       4.6333968368E-003       0.0000000000E+000       1.8414540960E+001       0.0000000000E+000       9.9999999878E-001       9.4016090572E-001       2.1495253465E+000       6.6666666667E-002       1.0000000000E-003       1.0000000000E-003       0.0000000000E+000       1.0000000003E+000       0.0000000000E+000       2.7777777791E-003       4.3785108804E-002
       0.0000000000E+000       1.3960125430E-002       0.0000000000E+000       1.8410822103E+001       0.0000000000E+000       9.9999999878E-001       9.4289760199E-001       2.1600284243E+000       6.6666666667E-002       1.0000000000E-003       1.0000000000E-003       0.0000000000E+000       1.0000000003E+000       0.0000000000E+000       2.7777777791E-003       4.3638871183E-002
       0.0000000000E+000       2.3401918894E-002       0.0000000000E+000       1.8403222148E+001       0.0000000000E+000       9.9999999878E-001       9.4848274509E-001       2.1815196533E+000       6.6666666667E-002       1.0000000000E-003       1.0000000000E-003       0.0000000000E+000       1.0000000003E+000       0.0000000000E+000       2.7777777791E-003       4.3518578168E-002
       0.0000000000E+000       3.2948914513E-002       0.0000000000E+000       1.8391598154E+001       0.0000000000E+000       9.9999999878E-001       9.5700617876E-001       2.2144624736E+000       6.6666666667E-002       1.0000000000E-003       1.0000000000E-003       0.0000000000E+000       1.0000000003E+000       0.0000000000E+000       2.7777777791E-003       4.3424074460E-002
       0.0000000000E+000       4.2590763245E-002       0.0000000000E+000       1.8375828494E+001       0.0000000000E+000       9.9999999878E-001       9.6853374783E-001       2.2592961396E+000       6.6666666667E-002       1.0000000000E-003       1.0000000000E-003       0.0000000000E+000       1.0000000003E+000       0.0000000000E+000       2.7777777791E-003       4.3354654787E-002
       0.0000000000E+000       5.2316670463E-002       0.0000000000E+000       1.8355814386E+001       0.0000000000E+000       9.9999999878E-001       9.8310587036E-001       2.3164338945E+000       6.6666666667E-002       1.0000000000E-003       1.0000000000E-003       0.0000000000E+000       1.0000000003E+000       0.0000000000E+000       2.7777777791E-003       4.3309001390E-002
       0.0000000000E+000       6.2115441043E-002       0.0000000000E+000       1.8331480873E+001       0.0000000000E+000       9.9999999878E-001       1.0007368731E+000       2.3862620127E+000       6.6666666667E-002       1.0000000000E-003       1.0000000000E-003       0.0000000000E+000       1.0000000003E+000       0.0000000000E+000       2.7777777791E-003       4.3285130430E-002
       0.0000000000E+000       7.1975528421E-002       0.0000000000E+000       1.8302777180E+001       0.0000000000E+000       9.9999999878E-001       1.0214151452E+000       2.4691399191E+000       6.6666666667E-002       1.0000000000E-003       1.0000000000E-003       0.0000000000E+000       1.0000000003E+000       0.0000000000E+000       2.7777777791E-003       4.3280357129E-002
       0.0000000000E+000       8.1885087210E-002       0.0000000000E+000       1.8269676408E+001       0.0000000000E+000       9.9999999878E-001       1.0451041118E+000       2.5654015627E+000       6.6666666667E-002       1.0000000000E-003       1.0000000000E-003       0.0000000000E+000       1.0000000003E+000       0.0000000000E+000       2.7777777791E-003       4.3291288812E-002
       0.0000000000E+000       9.1832028879E-002       0.0000000000E+000       1.8232174593E+001       0.0000000000E+000       9.9999999878E-001       1.0717439710E+000       2.6753581448E+000       6.6666666667E-002       1.0000000000E-003       1.0000000000E-003       0.0000000000E+000       1.0000000003E+000       0.0000000000E+000       2.7777777791E-003       4.3313852210E-002
       0.0000000000E+000       1.0180407995E-001       0.0000000000E+000       1.8190289176E+001       0.0000000000E+000       9.9999999878E-001       1.1012540827E+000       2.7993022103E+000       6.6666666667E-002       1.0000000000E-003       1.0000000000E-003       0.0000000000E+000       1.0000000003E+000       0.0000000000E+000       2.7777777791E-003       4.3343357143E-002
       0.0000000000E+000       1.1178884212E-001       0.0000000000E+000       1.8144056983E+001       0.0000000000E+000       9.9999999878E-001       1.1335358546E+000       2.9375129960E+000       6.6666666667E-002       1.0000000000E-003       1.0000000000E-003       0.0000000000E+000       1.0000000003E+000       0.0000000000E+000       2.7777777791E-003       4.3374594029E-002
       0.0000000000E+000       1.2177385375E-001       0.0000000000E+000       1.8093531833E+001       0.0000000000E+000       9.9999999878E-001       1.1684759453E+000       3.0902628395E+000       6.6666666667E-002       1.0000000000E-003       1.0000000000E-003       0.0000000000E+000       1.0000000003E+000       0.0000000000E+000       2.7777777791E-003       4.3401958670E-002
       0.0000000000E+000       1.3174665193E-001       0.0000000000E+000       1.8038781916E+001       0.0000000000E+000       9.9999999878E-001       1.2059495973E+000       3.2578243756E+000       6.6666666667E-002       1.0000000000E-003       1.0000000000E-003       0.0000000000E+000       1.0000000003E+000       0.0000000000E+000       2.7777777791E-003       4.3419595164E-002
       0.0000000000E+000       1.4169483466E-001       0.0000000000E+000       1.7979887081E+001       0.0000000000E+000       9.9999999878E-001       1.2458239245E+000       3.4404782169E+000       6.6666666667E-002       1.0000000000E-003       1.0000000000E-003       0.0000000000E+000       1.0000000003E+000       0.0000000000E+000       2.7777777791E-003       4.3421546827E-002
       0.0000000000E+000       1.5160612229E-001       0.0000000000E+000       1.7916936136E+001       0.0000000000E+000       9.9999999878E-001       1.2879610080E+000       3.6385208136E+000       6.6666666667E-002       1.0000000000E-003       1.0000000000E-003       0.0000000000E+000       1.0000000003E+000       0.0000000000E+000       2.7777777791E-003       4.3401905552E-002
       0.0000000000E+000       1.6146841776E-001       0.0000000000E+000       1.7850024286E+001       0.0000000000E+000       9.9999999878E-001       1.3322206873E+000       3.8522722230E+000       6.6666666667E-002       1.0000000000E-003       1.0000000000E-003       0.0000000000E+000       1.0000000003E+000       0.0000000000E+000       2.7777777791E-003       4.3354951622E-002
       0.0000000000E+000       1.7126986487E-001       0.0000000000E+000       1.7779250756E+001       0.0000000000E+000       9.9999999878E-001       1.3784629731E+000       4.0820835700E+000       6.6666666667E-002       1.0000000000E-003       1.0000000000E-003       0.0000000000E+000       1.0000000003E+000       0.0000000000E+000       2.7777777791E-003       4.3275278143E-002
       0.0000000000E+000       1.8099890407E-001       0.0000000000E+000       1.7704716660E+001       0.0000000000E+000       9.9999999878E-001       1.4265500435E+000       4.3283440457E+000       6.6666666667E-002       1.0000000000E-003       1.0000000000E-003       0.0000000000E+000       1.0000000003E+000       0.0000000000E+000       2.7777777791E-003       4.3157896481E-002
       0.0000000000E+000       1.9064432522E-001       0.0000000000E+000       1.7626523128E+001       0.0000000000E+000       9.9999999878E-001       1.4763478174E+000       4.5914873526E+000       6.6666666667E-002       1.0000000000E-003       1.0000000000E-003       0.0000000000E+000       1.0000000003E+000       0.0000000000E+000       2.7777777791E-003       4.2998321084E-002
       0.0000000000E+000       2.0019531677E-001       0.0000000000E+000       1.7544769697E+001       0.0000000000E+000       9.9999999878E-001       1.5277271193E+000       4.8719975623E+000       6.6666666667E-002       1.0000000000E-003       1.0000000000E-003       0.0000000000E+000       1.0000000003E+000       0.0000000000E+000       2.7777777791E-003       4.2792633638E-002
       0.0000000000E+000       2.0964151104E-001       0.0000000000E+000       1.7459552949E+001       0.0000000000E+000       9.9999999878E-001       1.5805644685E+000       5.1704143968E+000       6.6666666667E-002       1.0000000000E-003       1.0000000000E-003       0.0000000000E+000       1.0000000003E+000       0.0000000000E+000       2.7777777791E-003       4.2537527629E-002
       0.0000000000E+000       2.1897302515E-001       0.0000000000E+000       1.7370965380E+001       0.0000000000E+000       9.9999999878E-001       1.6347425331E+000       5.4873379780E+000       6.6666666667E-002       1.0000000000E-003       1.0000000000E-003       0.0000000000E+000       1.0000000003E+000       0.0000000000E+000       2.7777777791E-003       4.2230335074E-002
       0.0000000000E+000       2.2818049727E-001       0.0000000000E+000       1.7279094472E+001       0.0000000000E+000       9.9999999878E-001       1.6901502934E+000       5.8234331106E+000       6.6666666667E-002       1.0000000000E-003       1.0000000000E-003       0.0000000000E+000       1.0000000003E+000       0.0000000000E+000       2.7777777791E-003       4.1869037533E-002
       0.0000000000E+000       2.3725511815E-001       0.0000000000E+000       1.7184021923E+001       0.0000000000E+000       9.9999999878E-001       1.7466829584E+000       6.1794331762E+000       6.6666666667E-002       1.0000000000E-003       1.0000000000E-003       0.0000000000E+000       1.0000000003E+000       0.0000000000E+000       2.7777777791E-003       4.1452263623E-002
       0.0000000000E+000       2.4618865751E-001       0.0000000000E+000       1.7085823039E+001       0.0000000000E+000       9.9999999878E-001       1.8042416777E+000       6.5561437175E+000       6.6666666667E-002       1.0000000000E-003       1.0000000000E-003       0.0000000000E+000       1.0000000003E+000       0.0000000000E+000       2.7777777791E-003       4.0979275171E-002
       0.0000000000E+000       2.5497348552E-001       0.0000000000E+000       1.6984566224E+001       0.0000000000E+000       9.9999999878E-001       1.8627330828E+000       6.9544457897E+000       6.6666666667E-002       1.0000000000E-003       1.0000000000E-003       0.0000000000E+000       1.0000000003E+000       0.0000000000E+000       2.7777777791E-003       4.0449944001E-002
       0.0000000000E+000       2.6360258909E-001       0.0000000000E+000       1.6880312569E+001       0.0000000000E+000       9.9999999878E-001       1.9220686914E+000       7.3752991489E+000       6.6666666667E-002       1.0000000000E-003       1.0000000000E-003       0.0000000000E+000       1.0000000003E+000       0.0000000000E+000       2.7777777791E-003       3.9864721148E-002
       0.0000000000E+000       2.7206958327E-001       0.0000000000E+000       1.6773115511E+001       0.0000000000E+000       9.9999999878E-001       1.9821641970E+000       7.8197453367E+000       6.6666666667E-002       1.0000000000E-003       1.0000000000E-003       0.0000000000E+000       1.0000000003E+000       0.0000000000E+000       2.7777777791E-003       3.9224600058E-002
       0.0000000000E+000       2.8036871763E-001       0.0000000000E+000       1.6663020535E+001       0.0000000000E+000       9.9999999878E-001       2.0429386643E+000       8.2889107098E+000       6.6666666667E-002       1.0000000000E-003       1.0000000000E-003       0.0000000000E+000       1.0000000003E+000       0.0000000000E+000       2.7777777791E-003       3.8531075170E-002
       0.0000000000E+000       2.8849487814E-001       0.0000000000E+000       1.6550064915E+001       0.0000000000E+000       9.9999999878E-001       2.1043136448E+000       8.7840094503E+000       6.6666666667E-002       1.0000000000E-003       1.0000000000E-003       0.0000000000E+000       1.0000000003E+000       0.0000000000E+000       2.7777777791E-003       3.7786097079E-002
       0.0000000000E+000       2.9644358439E-001       0.0000000000E+000       1.6434277473E+001       0.0000000000E+000       9.9999999878E-001       2.1662122211E+000       9.3063465792E+000       6.6666666667E-002       1.0000000000E-003       1.0000000000E-003       0.0000000000E+000       1.0000000003E+000       0.0000000000E+000       2.7777777791E-003       3.6992025327E-002
       0.0000000000E+000       3.0421098279E-001       0.0000000000E+000       1.6315678337E+001       0.0000000000E+000       9.9999999878E-001       2.2285579867E+000       9.8573209826E+000       6.6666666667E-002       1.0000000000E-003       1.0000000000E-003       0.0000000000E+000       1.0000000003E+000       0.0000000000E+000       2.7777777791E-003       3.6151579745E-002
       0.0000000000E+000       3.1179383578E-001       0.0000000000E+000       1.6194278706E+001       0.0000000000E+000       9.9999999878E-001       2.2912739605E+000       1.0438428444E+001       6.6666666667E-002       1.0000000000E-003       1.0000000000E-003       0.0000000000E+000       1.0000000003E+000       0.0000000000E+000       2.7777777791E-003       3.5267791184E-002
       0.0000000000E+000       3.1918950757E-001       0.0000000000E+000       1.6070080588E+001       0.0000000000E+000       9.9999999878E-001       2.3542814371E+000       1.1051264660E+001       6.6666666667E-002       1.0000000000E-003       1.0000000000E-003       0.0000000000E+000       1.0000000003E+000       0.0000000000E+000       2.7777777791E-003       3.4343952338E-002
       0.0000000000E+000       3.2639594666E-001       0.0000000000E+000       1.5943076522E+001       0.0000000000E+000       9.9999999878E-001       2.4174987653E+000       1.1697528199E+001       6.6666666667E-002       1.0000000000E-003       1.0000000000E-003       0.0000000000E+000       1.0000000003E+000       0.0000000000E+000       2.7777777791E-003       3.3383569328E-002
       0.0000000000E+000       3.3341166559E-001       0.0000000000E+000       1.5813249259E+001       0.0000000000E+000       9.9999999878E-001       2.4808400499E+000       1.2379023334E+001       6.6666666667E-002       1.0000000000E-003       1.0000000000E-003       0.0000000000E+000       1.0000000003E+000       0.0000000000E+000       2.7777777791E-003       3.2390314623E-002
       0.0000000000E+000       3.4023571818E-001       0.0000000000E+000       1.5680571403E+001       0.0000000000E+000       9.9999999878E-001       2.5442137634E+000       1.3097662658E+001       6.6666666667E-002       1.0000000000E-003       1.0000000000E-003       0.0000000000E+000       1.0000000003E+000       0.0000000000E+000       2.7777777791E-003       3.1367981815E-002
       0.0000000000E+000       3.4686767480E-001       0.0000000000E+000       1.5545005006E+001       0.0000000000E+000       9.9999999878E-001       2.6075212584E+000       1.3855469343E+001       6.6666666667E-002       1.0000000000E-003       1.0000000000E-003       0.0000000000E+000       1.0000000003E+000       0.0000000000E+000       2.7777777791E-003       3.0320442707E-002
       0.0000000000E+000       3.5330759591E-001       0.0000000000E+000       1.5406501086E+001       0.0000000000E+000       9.9999999878E-001       2.6706551614E+000       1.4654578860E+001       6.6666666667E-002       1.0000000000E-003       1.0000000000E-003       0.0000000000E+000       1.0000000003E+000       0.0000000000E+000       2.7777777791E-003       2.9251607108E-002
       0.0000000000E+000       3.5955600420E-001       0.0000000000E+000       1.5264999095E+001       0.0000000000E+000       9.9999999878E-001       2.7334976321E+000       1.5497239907E+001       6.6666666667E-002       1.0000000000E-003       1.0000000000E-003       0.0000000000E+000       1.0000000003E+000       0.0000000000E+000       2.7777777791E-003       2.8165385682E-002
       0.0000000000E+000       3.6561385588E-001       0.0000000000E+000       1.5120426285E+001       0.0000000000E+000       9.9999999878E-001       2.7959184668E+000       1.6385814204E+001       6.6666666667E-002       1.0000000000E-003       1.0000000000E-003       0.0000000000E+000       1.0000000003E+000       0.0000000000E+000       2.7777777791E-003       2.7065656122E-002
       0.0000000000E+000       3.7148251118E-001       0.0000000000E+000       1.4972697001E+001       0.0000000000E+000       9.9999999878E-001       2.8577730207E+000       1.7322774686E+001       6.6666666667E-002       1.0000000000E-003       1.0000000000E-003       0.0000000000E+000       1.0000000003E+000       0.0000000000E+000       2.7777777791E-003       2.5956232886E-002
       0.0000000000E+000       3.7716370456E-001       0.0000000000E+000       1.4821711855E+001       0.0000000000E+000       9.9999999878E-001       2.9188999227E+000       1.8310701471E+001       6.6666666667E-002       1.0000000000E-003       1.0000000000E-003       0.0000000000E+000       1.0000000003E+000       0.0000000000E+000       2.7777777791E-003       2.4840840643E-002
       0.0000000000E+000       3.8265951477E-001       0.0000000000E+000       1.4667356799E+001       0.0000000000E+000       9.9999999878E-001       2.9791185526E+000       1.9352274776E+001       6.6666666667E-002       1.0000000000E-003       1.0000000000E-003       0.0000000000E+000       1.0000000003E+000       0.0000000000E+000       2.7777777791E-003       2.3723091550E-002
       0.0000000000E+000       3.8797233517E-001       0.0000000000E+000       1.4509502063E+001       0.0000000000E+000       9.9999999878E-001       3.0382262468E+000       2.0450263654E+001       6.6666666667E-002       1.0000000000E-003       1.0000000000E-003       0.0000000000E+000       1.0000000003E+000       0.0000000000E+000       2.7777777791E-003       2.2606466393E-002
       0.0000000000E+000       3.9310484436E-001       0.0000000000E+000       1.4348000960E+001       0.0000000000E+000       9.9999999878E-001       3.0959951975E+000       2.1607509098E+001       6.6666666667E-002       1.0000000000E-003       1.0000000000E-003       0.0000000000E+000       1.0000000003E+000       0.0000000000E+000       2.7777777791E-003       2.1494299567E-002
       0.0000000000E+000       3.9805997742E-001       0.0000000000E+000       1.4182688542E+001       0.0000000000E+000       9.9999999878E-001       3.1521690069E+000       2.2826899568E+001       6.6666666667E-002       1.0000000000E-003       1.0000000000E-003       0.0000000000E+000       1.0000000003E+000       0.0000000000E+000       2.7777777791E-003       2.0389767837E-002
       0.0000000000E+000       4.0284089799E-001       0.0000000000E+000       1.4013380097E+001       0.0000000000E+000       9.9999999878E-001       3.2064588601E+000       2.4111336429E+001       6.6666666667E-002       1.0000000000E-003       1.0000000000E-003       0.0000000000E+000       1.0000000003E+000       0.0000000000E+000       2.7777777791E-003       1.9295882709E-002
       0.0000000000E+000       4.0745097118E-001       0.0000000000E+000       1.3839869485E+001       0.0000000000E+000       9.9999999878E-001       3.2585392793E+000       2.5463686048E+001       6.6666666667E-002       1.0000000000E-003       1.0000000000E-003       0.0000000000E+000       1.0000000003E+000       0.0000000000E+000       2.7777777791E-003       1.8215486220E-002
       0.0000000000E+000       4.1189373758E-001       0.0000000000E+000       1.3661927303E+001       0.0000000000E+000       9.9999999878E-001       3.3080434322E+000       2.6886714394E+001       6.6666666667E-002       1.0000000000E-003       1.0000000000E-003       0.0000000000E+000       1.0000000003E+000       0.0000000000E+000       2.7777777791E-003       1.7151249873E-002
       0.0000000000E+000       4.1617288839E-001       0.0000000000E+000       1.3479298894E+001       0.0000000000E+000       9.9999999878E-001       3.3545579770E+000       2.8382998876E+001       6.6666666667E-002       1.0000000000E-003       1.0000000000E-003       0.0000000000E+000       1.0000000003E+000       0.0000000000E+000       2.7777777791E-003       1.6105676396E-002
       0.0000000000E+000       4.2029224178E-001       0.0000000000E+000       1.3291702197E+001       0.0000000000E+000       9.9999999878E-001       3.3976174482E+000       2.9954810844E+001       6.6666666667E-002       1.0000000000E-003       1.0000000000E-003       0.0000000000E+000       1.0000000003E+000       0.0000000000E+000       2.7777777791E-003       1.5081103952E-002
       0.0000000000E+000       4.2425572057E-001       0.0000000000E+000       1.3098825483E+001       0.0000000000E+000       9.9999999878E-001       3.4366982250E+000       3.1603960667E+001       6.6666666667E-002       1.0000000000E-003       1.0000000000E-003       0.0000000000E+000       1.0000000003E+000       0.0000000000E+000       2.7777777791E-003       1.4079712378E-002
       0.0000000000E+000       4.2806733114E-001       0.0000000000E+000       1.2900325014E+001       0.0000000000E+000       9.9999999878E-001       3.4712121747E+000       3.3331595587E+001       6.6666666667E-002       1.0000000000E-003       1.0000000000E-003       0.0000000000E+000       1.0000000003E+000       0.0000000000E+000       2.7777777791E-003       1.3103531022E-002
       0.0000000000E+000       4.3173114379E-001       0.0000000000E+000       1.2695822702E+001       0.0000000000E+000       9.9999999878E-001       3.5005001479E+000       3.5137938813E+001       6.6666666667E-002       1.0000000000E-003       1.0000000000E-003       0.0000000000E+000       1.0000000003E+000       0.0000000000E+000       2.7777777791E-003       1.2154447697E-002
       0.0000000000E+000       4.3525127437E-001       0.0000000000E+000       1.2484903886E+001       0.0000000000E+000       9.9999999878E-001       3.5238256193E+000       3.7021956642E+001       6.6666666667E-002       1.0000000000E-003       1.0000000000E-003       0.0000000000E+000       1.0000000003E+000       0.0000000000E+000       2.7777777791E-003       1.1234218298E-002
       0.0000000000E+000       4.3863186730E-001       0.0000000000E+000       1.2267115403E+001       0.0000000000E+000       9.9999999878E-001       3.5403689391E+000       3.8980939190E+001       6.6666666667E-002       1.0000000000E-003       1.0000000000E-003       0.0000000000E+000       1.0000000003E+000       0.0000000000E+000       2.7777777791E-003       1.0344476608E-002
       0.0000000000E+000       4.4187707994E-001       0.0000000000E+000       1.2041964192E+001       0.0000000000E+000       9.9999999878E-001       3.5492228940E+000       4.1009980189E+001       6.6666666667E-002       1.0000000000E-003       1.0000000000E-003       0.0000000000E+000       1.0000000003E+000       0.0000000000E+000       2.7777777791E-003       9.4867438483E-003
       0.0000000000E+000       4.4499106819E-001       0.0000000000E+000       1.1808916805E+001       0.0000000000E+000       9.9999999878E-001       3.5493905993E+000       4.3101343106E+001       6.6666666667E-002       1.0000000000E-003       1.0000000000E-003       0.0000000000E+000       1.0000000003E+000       0.0000000000E+000       2.7777777791E-003       8.6624375194E-003
       0.0000000000E+000       4.4797797343E-001       0.0000000000E+000       1.1567400295E+001       0.0000000000E+000       9.9999999878E-001       3.5397871639E+000       4.5243706056E+001       6.6666666667E-002       1.0000000000E-003       1.0000000000E-003       0.0000000000E+000       1.0000000003E+000       0.0000000000E+000       2.7777777791E-003       7.8728790986E-003
       0.0000000000E+000       4.5084191063E-001       0.0000000000E+000       1.1316805192E+001       0.0000000000E+000       9.9999999878E-001       3.5192471020E+000       4.7421288698E+001       6.6666666667E-002       1.0000000000E-003       1.0000000000E-003       0.0000000000E+000       1.0000000003E+000       0.0000000000E+000       2.7777777791E-003       7.1193001010E-003
       0.0000000000E+000       4.5358695766E-001       0.0000000000E+000       1.1056491448E+001       0.0000000000E+000       9.9999999878E-001       3.4865400975E+000       4.9612883203E+001       6.6666666667E-002       1.0000000000E-003       1.0000000000E-003       0.0000000000E+000       1.0000000003E+000       0.0000000000E+000       2.7777777791E-003       6.4028459408E-003
       0.0000000000E+000       4.5621714576E-001       0.0000000000E+000       1.0785798562E+001       0.0000000000E+000       9.9999999878E-001       3.4403984120E+000       5.1790842024E+001       6.6666666667E-002       1.0000000000E-003       1.0000000000E-003       0.0000000000E+000       1.0000000003E+000       0.0000000000E+000       2.7777777791E-003       5.7245768630E-003
       0.0000000000E+000       4.5873645099E-001       0.0000000000E+000       1.0504061352E+001       0.0000000000E+000       9.9999999878E-001       3.3795598428E+000       5.3920120902E+001       6.6666666667E-002       1.0000000000E-003       1.0000000000E-003       0.0000000000E+000       1.0000000003E+000       0.0000000000E+000       2.7777777791E-003       5.0854649569E-003
       0.0000000000E+000       4.6114878677E-001       0.0000000000E+000       1.0210633154E+001       0.0000000000E+000       9.9999999878E-001       3.3028304508E+000       5.5957538604E+001       6.6666666667E-002       1.0000000000E-003       1.0000000000E-003       0.0000000000E+000       1.0000000003E+000       0.0000000000E+000       2.7777777791E-003       4.4863859154E-003
       0.0000000000E+000       4.6345799731E-001       0.0000000000E+000       9.9049183648E+000       0.0000000000E+000       9.9999999878E-001       3.2091708881E+000       5.7851493272E+001       6.6666666667E-002       1.0000000000E-003       1.0000000000E-003       0.0000000000E+000       1.0000000003E+000       0.0000000000E+000       2.7777777791E-003       3.9281037813E-003
       0.0000000000E+000       4.6566785199E-001       0.0000000000E+000       9.5864161054E+000       0.0000000000E+000       9.9999999878E-001       3.0978084818E+000       5.9542458362E+001       6.6666666667E-002       1.0000000000E-003       1.0000000000E-003       0.0000000000E+000       1.0000000003E+000       0.0000000000E+000       2.7777777791E-003       3.4112465483E-003
       0.0000000000E+000       4.6778204052E-001       0.0000000000E+000       9.2547761086E+000       0.0000000000E+000       9.9999999878E-001       2.9683735460E+000       6.0964643495E+001       6.6666666667E-002       1.0000000000E-003       1.0000000000E-003       0.0000000000E+000       1.0000000003E+000       0.0000000000E+000       2.7777777791E-003       2.9362703684E-003
       0.0000000000E+000       4.6980416890E-001       0.0000000000E+000       8.9098663544E+000       0.0000000000E+000       9.9999999878E-001       2.8210520752E+000       6.2049202199E+001       6.6666666667E-002       1.0000000000E-003       1.0000000000E-003       0.0000000000E+000       1.0000000003E+000       0.0000000000E+000       2.7777777791E-003       2.5034106047E-003
       0.0000000000E+000       4.7173775606E-001       0.0000000000E+000       8.5518492524E+000       0.0000000000E+000       9.9999999878E-001       2.6567379713E+000       6.2729236688E+001       6.6666666667E-002       1.0000000000E-003       1.0000000000E-003       0.0000000000E+000       1.0000000003E+000       0.0000000000E+000       2.7777777791E-003       2.1126195408E-003
       0.0000000000E+000       4.7358623122E-001       0.0000000000E+000       8.1812592361E+000       0.0000000000E+000       9.9999999878E-001       2.4771575925E+000       6.2946529119E+001       6.6666666667E-002       1.0000000000E-003       1.0000000000E-003       0.0000000000E+000       1.0000000003E+000       0.0000000000E+000       2.7777777791E-003       1.7634935963E-003
       0.0000000000E+000       4.7535293177E-001       0.0000000000E+000       7.7990700380E+000       0.0000000000E+000       9.9999999878E-001       2.2849310668E+000       6.2659404589E+001       6.6666666667E-002       1.0000000000E-003       1.0000000000E-003       0.0000000000E+000       1.0000000003E+000       0.0000000000E+000       2.7777777791E-003       1.4551974543E-003
       0.0000000000E+000       4.7704110176E-001       0.0000000000E+000       7.4067361129E+000       0.0000000000E+000       9.9999999878E-001       2.0835338655E+000       6.1850497185E+001       6.6666666667E-002       1.0000000000E-003       1.0000000000E-003       0.0000000000E+000       1.0000000003E+000       0.0000000000E+000       2.7777777791E-003       1.1863977320E-003
       0.0000000000E+000       4.7865389090E-001       0.0000000000E+000       7.0061918966E+000       0.0000000000E+000       9.9999999878E-001       1.8771340435E+000       6.0532684795E+001       6.6666666667E-002       1.0000000000E-003       1.0000000000E-003       0.0000000000E+000       1.0000000003E+000       0.0000000000E+000       2.7777777791E-003       9.5522280824E-004
       0.0000000000E+000       4.8019435391E-001       0.0000000000E+000       6.5997970495E+000       0.0000000000E+000       9.9999999878E-001       1.6703069682E+000       5.8751406593E+001       6.6666666667E-002       1.0000000000E-003       1.0000000000E-003       0.0000000000E+000       1.0000000003E+000       0.0000000000E+000       2.7777777791E-003       7.5926551447E-004