 VARIABLES ="X","Y","U","W","C","T","k","eps", "v2","omega","nuSA","yplus","RHO","Pe","mu","mut"
 ZONE I=            98  J=           104  F=POINT 
       0.0000000000E+000      -4.6333968368E-003       0.0000000000E+000       8.9998828709E+001       0.0000000000E+000       9.9999999878E-001       1.0000000000E-001       1.0000000000E+000       6.6666666667E-002       1.0000000000E-003       1.0000000000E-003       0.0000000000E+000       1.0000000003E+000       0.0000000000E+000       2.7777777791E-003       0.0000000000E+000
       0.0000000000E+000       4.6333968368E-003       0.0000000000E+000       8.9998828709E+001       0.0000000000E+000       9.9999999878E-001       1.0000000000E-001       1.0000000000E+000       6.6666666667E-002       1.0000000000E-003       1.0000000000E-003       0.0000000000E+000       1.0000000003E+000       0.0000000000E+000       2.7777777791E-003       0.0000000000E+000
       0.0000000000E+000       1.3960125430E-002       0.0000000000E+000       8.9936601094E+001       0.0000000000E+000       9.9999999878E-001       1.0000000000E-001       1.0000000000E+000       6.6666666667E-002       1.0000000000E-003       1.0000000000E-003       0.0000000000E+000       1.0000000003E+000       0.0000000000E+000       2.7777777791E-003       0.0000000000E+000
       0.0000000000E+000       2.3401918894E-002       0.0000000000E+000       8.9809795573E+001       0.0000000000E+000       9.9999999878E-001       1.0000000000E-001       1.0000000000E+000       6.6666666667E-002       1.0000000000E-003       1.0000000000E-003       0.0000000000E+000       1.0000000003E+000       0.0000000000E+000       2.7777777791E-003       0.0000000000E+000
       0.0000000000E+000       3.2948914513E-002       0.0000000000E+000       8.9616298082E+001       0.0000000000E+000       9.9999999878E-001       1.0000000000E-001       1.0000000000E+000       6.6666666667E-002       1.0000000000E-003       1.0000000000E-003       0.0000000000E+000       1.0000000003E+000       0.0000000000E+000       2.7777777791E-003       0.0000000000E+000
       0.0000000000E+000       4.2590763245E-002       0.0000000000E+000       8.9354255258E+001       0.0000000000E+000       9.9999999878E-001       1.0000000000E-001       1.0000000000E+000       6.6666666667E-002       1.0000000000E-003       1.0000000000E-003       0.0000000000E+000       1.0000000003E+000       0.0000000000E+000       2.7777777791E-003       0.0000000000E+000
       0.0000000000E+000       5.2316670463E-002       0.0000000000E+000       8.9022097070E+001       0.0000000000E+000       9.9999999878E-001       1.0000000000E-001       1.0000000000E+000       6.6666666667E-002       1.0000000000E-003       1.0000000000E-003       0.0000000000E+000       1.0000000003E+000       0.0000000000E+000       2.7777777791E-003       0.0000000000E+000
       0.0000000000E+000       6.2115441043E-002       0.0000000000E+000       8.8618557225E+001       0.0000000000E+000       9.9999999878E-001       1.0000000000E-001       1.0000000000E+000       6.6666666667E-002       1.0000000000E-003       1.0000000000E-003       0.0000000000E+000       1.0000000003E+000       0.0000000000E+000       2.7777777791E-003       0.0000000000E+000
       0.0000000000E+000       7.1975528421E-002       0.0000000000E+000       8.8142690976E+001       0.0000000000E+000       9.9999999878E-001       1.0000000000E-001       1.0000000000E+000       6.6666666667E-002       1.0000000000E-003       1.0000000000E-003       0.0000000000E+000       1.0000000003E+000       0.0000000000E+000       2.7777777791E-003       0.0000000000E+000
       0.0000000000E+000       8.1885087210E-002       0.0000000000E+000       8.7593889992E+001       0.0000000000E+000       9.9999999878E-001       1.0000000000E-001       1.0000000000E+000       6.6666666667E-002       1.0000000000E-003       1.0000000000E-003       0.0000000000E+000       1.0000000003E+000       0.0000000000E+000       2.7777777791E-003       0.0000000000E+000
       0.0000000000E+000       9.1832028879E-002       0.0000000000E+000       8.6971894010E+001       0.0000000000E+000       9.9999999878E-001       1.0000000000E-001       1.0000000000E+000       6.6666666667E-002       1.0000000000E-003       1.0000000000E-003       0.0000000000E+000       1.0000000003E+000       0.0000000000E+000       2.7777777791E-003       0.0000000000E+000
       0.0000000000E+000       1.0180407995E-001       0.0000000000E+000       8.6276799026E+001       0.0000000000E+000       9.9999999878E-001       1.0000000000E-001       1.0000000000E+000       6.6666666667E-002       1.0000000000E-003       1.0000000000E-003       0.0000000000E+000       1.0000000003E+000       0.0000000000E+000       2.7777777791E-003       0.0000000000E+000
       0.0000000000E+000       1.1178884212E-001       0.0000000000E+000       8.5509061833E+001       0.0000000000E+000       9.9999999878E-001       1.0000000000E-001       1.0000000000E+000       6.6666666667E-002       1.0000000000E-003       1.0000000000E-003       0.0000000000E+000       1.0000000003E+000       0.0000000000E+000       2.7777777791E-003       0.0000000000E+000
       0.0000000000E+000       1.2177385375E-001       0.0000000000E+000       8.4669500808E+001       0.0000000000E+000       9.9999999878E-001       1.0000000000E-001       1.0000000000E+000       6.6666666667E-002       1.0000000000E-003       1.0000000000E-003       0.0000000000E+000       1.0000000003E+000       0.0000000000E+000       2.7777777791E-003       0.0000000000E+000
       0.0000000000E+000       1.3174665193E-001       0.0000000000E+000       8.3759292874E+001       0.0000000000E+000       9.9999999878E-001       1.0000000000E-001       1.0000000000E+000       6.6666666667E-002       1.0000000000E-003       1.0000000000E-003       0.0000000000E+000       1.0000000003E+000       0.0000000000E+000       2.7777777791E-003       0.0000000000E+000
       0.0000000000E+000       1.4169483466E-001       0.0000000000E+000       8.2779966670E+001       0.0000000000E+000       9.9999999878E-001       1.0000000000E-001       1.0000000000E+000       6.6666666667E-002       1.0000000000E-003       1.0000000000E-003       0.0000000000E+000       1.0000000003E+000       0.0000000000E+000       2.7777777791E-003       0.0000000000E+000
       0.0000000000E+000       1.5160612229E-001       0.0000000000E+000       8.1733392005E+001       0.0000000000E+000       9.9999999878E-001       1.0000000000E-001       1.0000000000E+000       6.6666666667E-002       1.0000000000E-003       1.0000000000E-003       0.0000000000E+000       1.0000000003E+000       0.0000000000E+000       2.7777777791E-003       0.0000000000E+000
       0.0000000000E+000       1.6146841776E-001       0.0000000000E+000       8.0621765760E+001       0.0000000000E+000       9.9999999878E-001       1.0000000000E-001       1.0000000000E+000       6.6666666667E-002       1.0000000000E-003       1.0000000000E-003       0.0000000000E+000       1.0000000003E+000       0.0000000000E+000       2.7777777791E-003       0.0000000000E+000
       0.0000000000E+000       1.7126986487E-001       0.0000000000E+000       7.9447594437E+001       0.0000000000E+000       9.9999999878E-001       1.0000000000E-001       1.0000000000E+000       6.6666666667E-002       1.0000000000E-003       1.0000000000E-003       0.0000000000E+000       1.0000000003E+000       0.0000000000E+000       2.7777777791E-003       0.0000000000E+000
       0.0000000000E+000       1.8099890407E-001       0.0000000000E+000       7.8213673654E+001       0.0000000000E+000       9.9999999878E-001       1.0000000000E-001       1.0000000000E+000       6.6666666667E-002       1.0000000000E-003       1.0000000000E-003       0.0000000000E+000       1.0000000003E+000       0.0000000000E+000       2.7777777791E-003       0.0000000000E+000
       0.0000000000E+000       1.9064432522E-001       0.0000000000E+000       7.6923064885E+001       0.0000000000E+000       9.9999999878E-001       1.0000000000E-001       1.0000000000E+000       6.6666666667E-002       1.0000000000E-003       1.0000000000E-003       0.0000000000E+000       1.0000000003E+000       0.0000000000E+000       2.7777777791E-003       0.0000000000E+000
       0.0000000000E+000       2.0019531677E-001       0.0000000000E+000       7.5579069828E+001       0.0000000000E+000       9.9999999878E-001       1.0000000000E-001       1.0000000000E+000       6.6666666667E-002       1.0000000000E-003       1.0000000000E-003       0.0000000000E+000       1.0000000003E+000       0.0000000000E+000       2.7777777791E-003       0.0000000000E+000
       0.0000000000E+000       2.0964151104E-001       0.0000000000E+000       7.4185202808E+001       0.0000000000E+000       9.9999999878E-001       1.0000000000E-001       1.0000000000E+000       6.6666666667E-002       1.0000000000E-003       1.0000000000E-003       0.0000000000E+000       1.0000000003E+000       0.0000000000E+000       2.7777777791E-003       0.0000000000E+000
       0.0000000000E+000       2.1897302515E-001       0.0000000000E+000       7.2745161617E+001       0.0000000000E+000       9.9999999878E-001       1.0000000000E-001       1.0000000000E+000       6.6666666667E-002       1.0000000000E-003       1.0000000000E-003       0.0000000000E+000       1.0000000003E+000       0.0000000000E+000       2.7777777791E-003       0.0000000000E+000
       0.0000000000E+000       2.2818049727E-001       0.0000000000E+000       7.1262797260E+001       0.0000000000E+000       9.9999999878E-001       1.0000000000E-001       1.0000000000E+000       6.6666666667E-002       1.0000000000E-003       1.0000000000E-003       0.0000000000E+000       1.0000000003E+000       0.0000000000E+000       2.7777777791E-003       0.0000000000E+000
       0.0000000000E+000       2.3725511815E-001       0.0000000000E+000       6.9742083026E+001       0.0000000000E+000       9.9999999878E-001       1.0000000000E-001       1.0000000000E+000       6.6666666667E-002       1.0000000000E-003       1.0000000000E-003       0.0000000000E+000       1.0000000003E+000       0.0000000000E+000       2.7777777791E-003       0.0000000000E+000
       0.0000000000E+000       2.4618865751E-001       0.0000000000E+000       6.8187083330E+001       0.0000000000E+000       9.9999999878E-001       1.0000000000E-001       1.0000000000E+000       6.6666666667E-002       1.0000000000E-003       1.0000000000E-003       0.0000000000E+000       1.0000000003E+000       0.0000000000E+000       2.7777777791E-003       0.0000000000E+000
       0.0000000000E+000       2.5497348552E-001       0.0000000000E+000       6.6601922754E+001       0.0000000000E+000       9.9999999878E-001       1.0000000000E-001       1.0000000000E+000       6.6666666667E-002       1.0000000000E-003       1.0000000000E-003       0.0000000000E+000       1.0000000003E+000       0.0000000000E+000       2.7777777791E-003       0.0000000000E+000
       0.0000000000E+000       2.6360258909E-001       0.0000000000E+000       6.4990755668E+001       0.0000000000E+000       9.9999999878E-001       1.0000000000E-001       1.0000000000E+000       6.6666666667E-002       1.0000000000E-003       1.0000000000E-003       0.0000000000E+000       1.0000000003E+000       0.0000000000E+000       2.7777777791E-003       0.0000000000E+000
       0.0000000000E+000       2.7206958327E-001       0.0000000000E+000       6.3357736821E+001       0.0000000000E+000       9.9999999878E-001       1.0000000000E-001       1.0000000000E+000       6.6666666667E-002       1.0000000000E-003       1.0000000000E-003       0.0000000000E+000       1.0000000003E+000       0.0000000000E+000       2.7777777791E-003       0.0000000000E+000
       0.0000000000E+000       2.8036871763E-001       0.0000000000E+000       6.1706993213E+001       0.0000000000E+000       9.9999999878E-001       1.0000000000E-001       1.0000000000E+000       6.6666666667E-002       1.0000000000E-003       1.0000000000E-003       0.0000000000E+000       1.0000000003E+000       0.0000000000E+000       2.7777777791E-003       0.0000000000E+000
       0.0000000000E+000       2.8849487814E-001       0.0000000000E+000       6.0042597558E+001       0.0000000000E+000       9.9999999878E-001       1.0000000000E-001       1.0000000000E+000       6.6666666667E-002       1.0000000000E-003       1.0000000000E-003       0.0000000000E+000       1.0000000003E+000       0.0000000000E+000       2.7777777791E-003       0.0000000000E+000
       0.0000000000E+000       2.9644358439E-001       0.0000000000E+000       5.8368543563E+001       0.0000000000E+000       9.9999999878E-001       1.0000000000E-001       1.0000000000E+000       6.6666666667E-002       1.0000000000E-003       1.0000000000E-003       0.0000000000E+000       1.0000000003E+000       0.0000000000E+000       2.7777777791E-003       0.0000000000E+000
       0.0000000000E+000       3.0421098279E-001       0.0000000000E+000       5.6688723248E+001       0.0000000000E+000       9.9999999878E-001       1.0000000000E-001       1.0000000000E+000       6.6666666667E-002       1.0000000000E-003       1.0000000000E-003       0.0000000000E+000       1.0000000003E+000       0.0000000000E+000       2.7777777791E-003       0.0000000000E+000
       0.0000000000E+000       3.1179383578E-001       0.0000000000E+000       5.5006906449E+001       0.0000000000E+000       9.9999999878E-001       1.0000000000E-001       1.0000000000E+000       6.6666666667E-002       1.0000000000E-003       1.0000000000E-003       0.0000000000E+000       1.0000000003E+000       0.0000000000E+000       2.7777777791E-003       0.0000000000E+000
       0.0000000000E+000       3.1918950757E-001       0.0000000000E+000       5.3326722604E+001       0.0000000000E+000       9.9999999878E-001       1.0000000000E-001       1.0000000000E+000       6.6666666667E-002       1.0000000000E-003       1.0000000000E-003       0.0000000000E+000       1.0000000003E+000       0.0000000000E+000       2.7777777791E-003       0.0000000000E+000
       0.0000000000E+000       3.2639594666E-001       0.0000000000E+000       5.1651644912E+001       0.0000000000E+000       9.9999999878E-001       1.0000000000E-001       1.0000000000E+000       6.6666666667E-002       1.0000000000E-003       1.0000000000E-003       0.0000000000E+000       1.0000000003E+000       0.0000000000E+000       2.7777777791E-003       0.0000000000E+000
       0.0000000000E+000       3.3341166559E-001       0.0000000000E+000       4.9984976862E+001       0.0000000000E+000       9.9999999878E-001       1.0000000000E-001       1.0000000000E+000       6.6666666667E-002       1.0000000000E-003       1.0000000000E-003       0.0000000000E+000       1.0000000003E+000       0.0000000000E+000       2.7777777791E-003       0.0000000000E+000
       0.0000000000E+000       3.4023571818E-001       0.0000000000E+000       4.8329841135E+001       0.0000000000E+000       9.9999999878E-001       1.0000000000E-001       1.0000000000E+000       6.6666666667E-002       1.0000000000E-003       1.0000000000E-003       0.0000000000E+000       1.0000000003E+000       0.0000000000E+000       2.7777777791E-003       0.0000000000E+000
       0.0000000000E+000       3.4686767480E-001       0.0000000000E+000       4.6689170817E+001       0.0000000000E+000       9.9999999878E-001       1.0000000000E-001       1.0000000000E+000       6.6666666667E-002       1.0000000000E-003       1.0000000000E-003       0.0000000000E+000       1.0000000003E+000       0.0000000000E+000       2.7777777791E-003       0.0000000000E+000
       0.0000000000E+000       3.5330759591E-001       0.0000000000E+000       4.5065702852E+001       0.0000000000E+000       9.9999999878E-001       1.0000000000E-001       1.0000000000E+000       6.6666666667E-002       1.0000000000E-003       1.0000000000E-003       0.0000000000E+000       1.0000000003E+000       0.0000000000E+000       2.7777777791E-003       0.0000000000E+000
       0.0000000000E+000       3.5955600420E-001       0.0000000000E+000       4.3461973623E+001       0.0000000000E+000       9.9999999878E-001       1.0000000000E-001       1.0000000000E+000       6.6666666667E-002       1.0000000000E-003       1.0000000000E-003       0.0000000000E+000       1.0000000003E+000       0.0000000000E+000       2.7777777791E-003       0.0000000000E+000
       0.0000000000E+000       3.6561385588E-001       0.0000000000E+000       4.1880316541E+001       0.0000000000E+000       9.9999999878E-001       1.0000000000E-001       1.0000000000E+000       6.6666666667E-002       1.0000000000E-003       1.0000000000E-003       0.0000000000E+000       1.0000000003E+000       0.0000000000E+000       2.7777777791E-003       0.0000000000E+000
       0.0000000000E+000       3.7148251118E-001       0.0000000000E+000       4.0322861489E+001       0.0000000000E+000       9.9999999878E-001       1.0000000000E-001       1.0000000000E+000       6.6666666667E-002       1.0000000000E-003       1.0000000000E-003       0.0000000000E+000       1.0000000003E+000       0.0000000000E+000       2.7777777791E-003       0.0000000000E+000
       0.0000000000E+000       3.7716370456E-001       0.0000000000E+000       3.8791535967E+001       0.0000000000E+000       9.9999999878E-001       1.0000000000E-001       1.0000000000E+000       6.6666666667E-002       1.0000000000E-003       1.0000000000E-003       0.0000000000E+000       1.0000000003E+000       0.0000000000E+000       2.7777777791E-003       0.0000000000E+000
       0.0000000000E+000       3.8265951477E-001       0.0000000000E+000       3.7288067786E+001       0.0000000000E+000       9.9999999878E-001       1.0000000000E-001       1.0000000000E+000       6.6666666667E-002       1.0000000000E-003       1.0000000000E-003       0.0000000000E+000       1.0000000003E+000       0.0000000000E+000       2.7777777791E-003       0.0000000000E+000
       0.0000000000E+000       3.8797233517E-001       0.0000000000E+000       3.5813989121E+001       0.0000000000E+000       9.9999999878E-001       1.0000000000E-001       1.0000000000E+000       6.6666666667E-002       1.0000000000E-003       1.0000000000E-003       0.0000000000E+000       1.0000000003E+000       0.0000000000E+000       2.7777777791E-003       0.0000000000E+000
       0.0000000000E+000       3.9310484436E-001       0.0000000000E+000       3.4370641769E+001       0.0000000000E+000       9.9999999878E-001       1.0000000000E-001       1.0000000000E+000       6.6666666667E-002       1.0000000000E-003       1.0000000000E-003       0.0000000000E+000       1.0000000003E+000       0.0000000000E+000       2.7777777791E-003       0.0000000000E+000
       0.0000000000E+000       3.9805997742E-001       0.0000000000E+000       3.2959183440E+001       0.0000000000E+000       9.9999999878E-001       1.0000000000E-001       1.0000000000E+000       6.6666666667E-002       1.0000000000E-003       1.0000000000E-003       0.0000000000E+000       1.0000000003E+000       0.0000000000E+000       2.7777777791E-003       0.0000000000E+000
       0.0000000000E+000       4.0284089799E-001       0.0000000000E+000       3.1580594909E+001       0.0000000000E+000       9.9999999878E-001       1.0000000000E-001       1.0000000000E+000       6.6666666667E-002       1.0000000000E-003       1.0000000000E-003       0.0000000000E+000       1.0000000003E+000       0.0000000000E+000       2.7777777791E-003       0.0000000000E+000
       0.0000000000E+000       4.0745097118E-001       0.0000000000E+000       3.0235687888E+001       0.0000000000E+000       9.9999999878E-001       1.0000000000E-001       1.0000000000E+000       6.6666666667E-002       1.0000000000E-003       1.0000000000E-003       0.0000000000E+000       1.0000000003E+000       0.0000000000E+000       2.7777777791E-003       0.0000000000E+000
       0.0000000000E+000       4.1189373758E-001       0.0000000000E+000       2.8925113449E+001       0.0000000000E+000       9.9999999878E-001       1.0000000000E-001       1.0000000000E+000       6.6666666667E-002       1.0000000000E-003       1.0000000000E-003       0.0000000000E+000       1.0000000003E+000       0.0000000000E+000       2.7777777791E-003       0.0000000000E+000
       0.0000000000E+000       4.1617288839E-001       0.0000000000E+000       2.7649370880E+001       0.0000000000E+000       9.9999999878E-001       1.0000000000E-001       1.0000000000E+000       6.6666666667E-002       1.0000000000E-003       1.0000000000E-003       0.0000000000E+000       1.0000000003E+000       0.0000000000E+000       2.7777777791E-003       0.0000000000E+000
       0.0000000000E+000       4.2029224178E-001       0.0000000000E+000       2.6408816824E+001       0.0000000000E+000       9.9999999878E-001       1.0000000000E-001       1.0000000000E+000       6.6666666667E-002       1.0000000000E-003       1.0000000000E-003       0.0000000000E+000       1.0000000003E+000       0.0000000000E+000       2.7777777791E-003       0.0000000000E+000
       0.0000000000E+000       4.2425572057E-001       0.0000000000E+000       2.5203674607E+001       0.0000000000E+000       9.9999999878E-001       1.0000000000E-001       1.0000000000E+000       6.6666666667E-002       1.0000000000E-003       1.0000000000E-003       0.0000000000E+000       1.0000000003E+000       0.0000000000E+000       2.7777777791E-003       0.0000000000E+000
       0.0000000000E+000       4.2806733114E-001       0.0000000000E+000       2.4034043624E+001       0.0000000000E+000       9.9999999878E-001       1.0000000000E-001       1.0000000000E+000       6.6666666667E-002       1.0000000000E-003       1.0000000000E-003       0.0000000000E+000       1.0000000003E+000       0.0000000000E+000       2.7777777791E-003       0.0000000000E+000
       0.0000000000E+000       4.3173114379E-001       0.0000000000E+000       2.2899908710E+001       0.0000000000E+000       9.9999999878E-001       1.0000000000E-001       1.0000000000E+000       6.6666666667E-002       1.0000000000E-003       1.0000000000E-003       0.0000000000E+000       1.0000000003E+000       0.0000000000E+000       2.7777777791E-003       0.0000000000E+000
       0.0000000000E+000       4.3525127437E-001       0.0000000000E+000       2.1801149405E+001       0.0000000000E+000       9.9999999878E-001       1.0000000000E-001       1.0000000000E+000       6.6666666667E-002       1.0000000000E-003       1.0000000000E-003       0.0000000000E+000       1.0000000003E+000       0.0000000000E+000       2.7777777791E-003       0.0000000000E+000
       0.0000000000E+000       4.3863186730E-001       0.0000000000E+000       2.0737549037E+001       0.0000000000E+000       9.9999999878E-001       1.0000000000E-001       1.0000000000E+000       6.6666666667E-002       1.0000000000E-003       1.0000000000E-003       0.0000000000E+000       1.0000000003E+000       0.0000000000E+000       2.7777777791E-003       0.0000000000E+000
       0.0000000000E+000       4.4187707994E-001       0.0000000000E+000       1.9708803570E+001       0.0000000000E+000       9.9999999878E-001       1.0000000000E-001       1.0000000000E+000       6.6666666667E-002       1.0000000000E-003       1.0000000000E-003       0.0000000000E+000       1.0000000003E+000       0.0000000000E+000       2.7777777791E-003       0.0000000000E+000
       0.0000000000E+000       4.4499106819E-001       0.0000000000E+000       1.8714530168E+001       0.0000000000E+000       9.9999999878E-001       1.0000000000E-001       1.0000000000E+000       6.6666666667E-002       1.0000000000E-003       1.0000000000E-003       0.0000000000E+000       1.0000000003E+000       0.0000000000E+000       2.7777777791E-003       0.0000000000E+000
       0.0000000000E+000       4.4797797343E-001       0.0000000000E+000       1.7754275418E+001       0.0000000000E+000       9.9999999878E-001       1.0000000000E-001       1.0000000000E+000       6.6666666667E-002       1.0000000000E-003       1.0000000000E-003       0.0000000000E+000       1.0000000003E+000       0.0000000000E+000       2.7777777791E-003       0.0000000000E+000
       0.0000000000E+000       4.5084191063E-001       0.0000000000E+000       1.6827523207E+001       0.0000000000E+000       9.9999999878E-001       1.0000000000E-001       1.0000000000E+000       6.6666666667E-002       1.0000000000E-003       1.0000000000E-003       0.0000000000E+000       1.0000000003E+000       0.0000000000E+000       2.7777777791E-003       0.0000000000E+000
       0.0000000000E+000       4.5358695766E-001       0.0000000000E+000       1.5933702193E+001       0.0000000000E+000       9.9999999878E-001       1.0000000000E-001       1.0000000000E+000       6.6666666667E-002       1.0000000000E-003       1.0000000000E-003       0.0000000000E+000       1.0000000003E+000       0.0000000000E+000       2.7777777791E-003       0.0000000000E+000
       0.0000000000E+000       4.5621714576E-001       0.0000000000E+000       1.5072192892E+001       0.0000000000E+000       9.9999999878E-001       1.0000000000E-001       1.0000000000E+000       6.6666666667E-002       1.0000000000E-003       1.0000000000E-003       0.0000000000E+000       1.0000000003E+000       0.0000000000E+000       2.7777777791E-003       0.0000000000E+000
       0.0000000000E+000       4.5873645099E-001       0.0000000000E+000       1.4242334336E+001       0.0000000000E+000       9.9999999878E-001       1.0000000000E-001       1.0000000000E+000       6.6666666667E-002       1.0000000000E-003       1.0000000000E-003       0.0000000000E+000       1.0000000003E+000       0.0000000000E+000       2.7777777791E-003       0.0000000000E+000
       0.0000000000E+000       4.6114878677E-001       0.0000000000E+000       1.3443430318E+001       0.0000000000E+000       9.9999999878E-001       1.0000000000E-001       1.0000000000E+000       6.6666666667E-002       1.0000000000E-003       1.0000000000E-003       0.0000000000E+000       1.0000000003E+000       0.0000000000E+000       2.7777777791E-003       0.0000000000E+000
       0.0000000000E+000       4.6345799731E-001       0.0000000000E+000       1.2674755209E+001       0.0000000000E+000       9.9999999878E-001       1.0000000000E-001       1.0000000000E+000       6.6666666667E-002       1.0000000000E-003       1.0000000000E-003       0.0000000000E+000       1.0000000003E+000       0.0000000000E+000       2.7777777791E-003       0.0000000000E+000
       0.0000000000E+000       4.6566785199E-001       0.0000000000E+000       1.1935559369E+001       0.0000000000E+000       9.9999999878E-001       1.0000000000E-001       1.0000000000E+000       6.6666666667E-002       1.0000000000E-003       1.0000000000E-003       0.0000000000E+000       1.0000000003E+000       0.0000000000E+000       2.7777777791E-003       0.0000000000E+000
       0.0000000000E+000       4.6778204052E-001       0.0000000000E+000       1.1225074138E+001       0.0000000000E+000       9.9999999878E-001       1.0000000000E-001       1.0000000000E+000       6.6666666667E-002       1.0000000000E-003       1.0000000000E-003       0.0000000000E+000       1.0000000003E+000       0.0000000000E+000       2.7777777791E-003       0.0000000000E+000
       0.0000000000E+000       4.6980416890E-001       0.0000000000E+000       1.0542516432E+001       0.0000000000E+000       9.9999999878E-001       1.0000000000E-001       1.0000000000E+000       6.6666666667E-002       1.0000000000E-003       1.0000000000E-003       0.0000000000E+000       1.0000000003E+000       0.0000000000E+000       2.7777777791E-003       0.0000000000E+000
       0.0000000000E+000       4.7173775606E-001       0.0000000000E+000       9.8870929510E+000       0.0000000000E+000       9.9999999878E-001       1.0000000000E-001       1.0000000000E+000       6.6666666667E-002       1.0000000000E-003       1.0000000000E-003       0.0000000000E+000       1.0000000003E+000       0.0000000000E+000       2.7777777791E-003       0.0000000000E+000
       0.0000000000E+000       4.7358623122E-001       0.0000000000E+000       9.2580040188E+000       0.0000000000E+000       9.9999999878E-001       1.0000000000E-001       1.0000000000E+000       6.6666666667E-002       1.0000000000E-003       1.0000000000E-003       0.0000000000E+000       1.0000000003E+000       0.0000000000E+000       2.7777777791E-003       0.0000000000E+000
       0.0000000000E+000       4.7535293177E-001       0.0000000000E+000       8.6544470597E+000       0.0000000000E+000       9.9999999878E-001       1.0000000000E-001       1.0000000000E+000       6.6666666667E-002       1.0000000000E-003       1.0000000000E-003       0.0000000000E+000       1.0000000003E+000       0.0000000000E+000       2.7777777791E-003       0.0000000000E+000
       0.0000000000E+000       4.7704110176E-001       0.0000000000E+000       8.0756197418E+000       0.0000000000E+000       9.9999999878E-001       1.0000000000E-001       1.0000000000E+000       6.6666666667E-002       1.0000000000E-003       1.0000000000E-003       0.0000000000E+000       1.0000000003E+000       0.0000000000E+000       2.7777777791E-003       0.0000000000E+000
       0.0000000000E+000       4.7865389090E-001       0.0000000000E+000       7.5207227974E+000       0.0000000000E+000       9.9999999878E-001       1.0000000000E-001       1.0000000000E+000       6.6666666667E-002       1.0000000000E-003       1.0000000000E-003       0.0000000000E+000       1.0000000003E+000       0.0000000000E+000       2.7777777791E-003       0.0000000000E+000
       0.0000000000E+000       4.8019435391E-001       0.0000000000E+000       6.9889625412E+000       0.0000000000E+000       9.9999999878E-001       1.0000000000E-001       1.0000000000E+000       6.6666666667E-002       1.0000000000E-003       1.0000000000E-003       0.0000000000E+000       1.0000000003E+000       0.0000000000E+000       2.7777777791E-003       0.0000000000E+000