 VARIABLES ="X","Y","U","W","P","C","T","k","eps", "v2","omega","nuSA","yplus","RHO","Pe","mu","mut"
 ZONE I=            26  J=            50  F=POINT 
       0.0000000000E+000      -1.8873724212E-002       0.0000000000E+000       1.0000000000E+000       1.7472609144E+000       0.0000000000E+000       9.9999999878E-001       0.0000000000E+000       0.0000000000E+000       0.0000000000E+000       0.0000000000E+000       0.0000000000E+000       0.0000000000E+000       1.0000000000E+000       0.0000000000E+000       2.7777777791E-003       0.0000000000E+000
       0.0000000000E+000       1.8873724212E-002       0.0000000000E+000       1.0000000000E+000       1.7472609144E+000       0.0000000000E+000       9.9999999878E-001       0.0000000000E+000       0.0000000000E+000       0.0000000000E+000       0.0000000000E+000       0.0000000000E+000       0.0000000000E+000       1.0000000000E+000       0.0000000000E+000       2.7777777791E-003       0.0000000000E+000
       0.0000000000E+000       5.7333443020E-002       0.0000000000E+000       1.0000000000E+000       1.7483362361E+000       0.0000000000E+000       9.9999999878E-001       0.0000000000E+000       0.0000000000E+000       0.0000000000E+000       0.0000000000E+000       0.0000000000E+000       0.0000000000E+000       1.0000000000E+000       0.0000000000E+000       2.7777777791E-003       0.0000000000E+000
       0.0000000000E+000       9.6851141461E-002       0.0000000000E+000       1.0000000000E+000       1.7498459686E+000       0.0000000000E+000       9.9999999878E-001       0.0000000000E+000       0.0000000000E+000       0.0000000000E+000       0.0000000000E+000       0.0000000000E+000       0.0000000000E+000       1.0000000000E+000       0.0000000000E+000       2.7777777791E-003       0.0000000000E+000
       0.0000000000E+000       1.3666693112E-001       0.0000000000E+000       1.0000000000E+000       1.7518248970E+000       0.0000000000E+000       9.9999999878E-001       0.0000000000E+000       0.0000000000E+000       0.0000000000E+000       0.0000000000E+000       0.0000000000E+000       0.0000000000E+000       1.0000000000E+000       0.0000000000E+000       2.7777777791E-003       0.0000000000E+000
       0.0000000000E+000       1.7599788518E-001       0.0000000000E+000       1.0000000000E+000       1.7542667552E+000       0.0000000000E+000       9.9999999878E-001       0.0000000000E+000       0.0000000000E+000       0.0000000000E+000       0.0000000000E+000       0.0000000000E+000       0.0000000000E+000       1.0000000000E+000       0.0000000000E+000       2.7777777791E-003       0.0000000000E+000
       0.0000000000E+000       2.1409841984E-001       0.0000000000E+000       1.0000000000E+000       1.7570871150E+000       0.0000000000E+000       9.9999999878E-001       0.0000000000E+000       0.0000000000E+000       0.0000000000E+000       0.0000000000E+000       0.0000000000E+000       0.0000000000E+000       1.0000000000E+000       0.0000000000E+000       2.7777777791E-003       0.0000000000E+000
       0.0000000000E+000       2.5031472918E-001       0.0000000000E+000       1.0000000000E+000       1.7601571020E+000       0.0000000000E+000       9.9999999878E-001       0.0000000000E+000       0.0000000000E+000       0.0000000000E+000       0.0000000000E+000       0.0000000000E+000       0.0000000000E+000       1.0000000000E+000       0.0000000000E+000       2.7777777791E-003       0.0000000000E+000
       0.0000000000E+000       2.8412521274E-001       0.0000000000E+000       1.0000000000E+000       1.7633311005E+000       0.0000000000E+000       9.9999999878E-001       0.0000000000E+000       0.0000000000E+000       0.0000000000E+000       0.0000000000E+000       0.0000000000E+000       0.0000000000E+000       1.0000000000E+000       0.0000000000E+000       2.7777777791E-003       0.0000000000E+000
       0.0000000000E+000       3.1516234544E-001       0.0000000000E+000       1.0000000000E+000       1.7664707499E+000       0.0000000000E+000       9.9999999878E-001       0.0000000000E+000       0.0000000000E+000       0.0000000000E+000       0.0000000000E+000       0.0000000000E+000       0.0000000000E+000       1.0000000000E+000       0.0000000000E+000       2.7777777791E-003       0.0000000000E+000
       0.0000000000E+000       3.4321561122E-001       0.0000000000E+000       1.0000000000E+000       1.7694646784E+000       0.0000000000E+000       9.9999999878E-001       0.0000000000E+000       0.0000000000E+000       0.0000000000E+000       0.0000000000E+000       0.0000000000E+000       0.0000000000E+000       1.0000000000E+000       0.0000000000E+000       2.7777777791E-003       0.0000000000E+000
       0.0000000000E+000       3.6821862997E-001       0.0000000000E+000       1.0000000000E+000       1.7722429991E+000       0.0000000000E+000       9.9999999878E-001       0.0000000000E+000       0.0000000000E+000       0.0000000000E+000       0.0000000000E+000       0.0000000000E+000       0.0000000000E+000       1.0000000000E+000       0.0000000000E+000       2.7777777791E-003       0.0000000000E+000
       0.0000000000E+000       3.9022562849E-001       0.0000000000E+000       1.0000000000E+000       1.7747851300E+000       0.0000000000E+000       9.9999999878E-001       0.0000000000E+000       0.0000000000E+000       0.0000000000E+000       0.0000000000E+000       0.0000000000E+000       0.0000000000E+000       1.0000000000E+000       0.0000000000E+000       2.7777777791E-003       0.0000000000E+000
       0.0000000000E+000       4.0938280595E-001       0.0000000000E+000       1.0000000000E+000       1.7771175418E+000       0.0000000000E+000       9.9999999878E-001       0.0000000000E+000       0.0000000000E+000       0.0000000000E+000       0.0000000000E+000       0.0000000000E+000       0.0000000000E+000       1.0000000000E+000       0.0000000000E+000       2.7777777791E-003       0.0000000000E+000
       0.0000000000E+000       4.2589932138E-001       0.0000000000E+000       1.0000000000E+000       1.7792967074E+000       0.0000000000E+000       9.9999999878E-001       0.0000000000E+000       0.0000000000E+000       0.0000000000E+000       0.0000000000E+000       0.0000000000E+000       0.0000000000E+000       1.0000000000E+000       0.0000000000E+000       2.7777777791E-003       0.0000000000E+000
       0.0000000000E+000       4.4002119401E-001       0.0000000000E+000       1.0000000000E+000       1.7813768459E+000       0.0000000000E+000       9.9999999878E-001       0.0000000000E+000       0.0000000000E+000       0.0000000000E+000       0.0000000000E+000       0.0000000000E+000       0.0000000000E+000       1.0000000000E+000       0.0000000000E+000       2.7777777791E-003       0.0000000000E+000
       0.0000000000E+000       4.5200990049E-001       0.0000000000E+000       1.0000000000E+000       1.7833740349E+000       0.0000000000E+000       9.9999999878E-001       0.0000000000E+000       0.0000000000E+000       0.0000000000E+000       0.0000000000E+000       0.0000000000E+000       0.0000000000E+000       1.0000000000E+000       0.0000000000E+000       2.7777777791E-003       0.0000000000E+000
       0.0000000000E+000       4.6212621624E-001       0.0000000000E+000       1.0000000000E+000       1.7852485906E+000       0.0000000000E+000       9.9999999878E-001       0.0000000000E+000       0.0000000000E+000       0.0000000000E+000       0.0000000000E+000       0.0000000000E+000       0.0000000000E+000       1.0000000000E+000       0.0000000000E+000       2.7777777791E-003       0.0000000000E+000
       0.0000000000E+000       4.7061901023E-001       0.0000000000E+000       1.0000000000E+000       1.7869203975E+000       0.0000000000E+000       9.9999999878E-001       0.0000000000E+000       0.0000000000E+000       0.0000000000E+000       0.0000000000E+000       0.0000000000E+000       0.0000000000E+000       1.0000000000E+000       0.0000000000E+000       2.7777777791E-003       0.0000000000E+000
       0.0000000000E+000       4.7771824678E-001       0.0000000000E+000       1.0000000000E+000       1.7883081167E+000       0.0000000000E+000       9.9999999878E-001       0.0000000000E+000       0.0000000000E+000       0.0000000000E+000       0.0000000000E+000       0.0000000000E+000       0.0000000000E+000       1.0000000000E+000       0.0000000000E+000       2.7777777791E-003       0.0000000000E+000
       0.0000000000E+000       4.8363128336E-001       0.0000000000E+000       1.0000000000E+000       1.7893661065E+000       0.0000000000E+000       9.9999999878E-001       0.0000000000E+000       0.0000000000E+000       0.0000000000E+000       0.0000000000E+000       0.0000000000E+000       0.0000000000E+000       1.0000000000E+000       0.0000000000E+000       2.7777777791E-003       0.0000000000E+000
       0.0000000000E+000       4.8854157621E-001       0.0000000000E+000       1.0000000000E+000       1.7900994422E+000       0.0000000000E+000       9.9999999878E-001       0.0000000000E+000       0.0000000000E+000       0.0000000000E+000       0.0000000000E+000       0.0000000000E+000       0.0000000000E+000       1.0000000000E+000       0.0000000000E+000       2.7777777791E-003       0.0000000000E+000
       0.0000000000E+000       4.9260902662E-001       0.0000000000E+000       1.0000000000E+000       1.7905539184E+000       0.0000000000E+000       9.9999999878E-001       0.0000000000E+000       0.0000000000E+000       0.0000000000E+000       0.0000000000E+000       0.0000000000E+000       0.0000000000E+000       1.0000000000E+000       0.0000000000E+000       2.7777777791E-003       0.0000000000E+000
       0.0000000000E+000       4.9597135731E-001       0.0000000000E+000       1.0000000000E+000       1.7907944937E+000       0.0000000000E+000       9.9999999878E-001       0.0000000000E+000       0.0000000000E+000       0.0000000000E+000       0.0000000000E+000       0.0000000000E+000       0.0000000000E+000       1.0000000000E+000       0.0000000000E+000       2.7777777791E-003       0.0000000000E+000
       0.0000000000E+000       4.9874606344E-001       0.0000000000E+000       1.0000000000E+000       1.7908869693E+000       0.0000000000E+000       9.9999999878E-001       0.0000000000E+000       0.0000000000E+000       0.0000000000E+000       0.0000000000E+000       0.0000000000E+000       0.0000000000E+000       1.0000000000E+000       0.0000000000E+000       2.7777777791E-003       0.0000000000E+000
       0.0000000000E+000       5.0125393656E-001       0.0000000000E+000       1.0000000000E+000       1.7908869693E+000       0.0000000000E+000       9.9999999878E-001       0.0000000000E+000       0.0000000000E+000       0.0000000000E+000       0.0000000000E+000       0.0000000000E+000       0.0000000000E+000       1.0000000000E+000       0.0000000000E+000       2.7777777791E-003       0.0000000000E+000
       2.0833333333E-001      -1.8873724212E-002      -9.6065421049E-003       1.1060396406E+000       1.7472609144E+000       8.4792484508E-016       9.9999999878E-001       1.0000000000E-001       1.0000000000E+000       6.6666666667E-002       1.0000000000E-003       1.0000000000E-003       0.0000000000E+000       1.0000000003E+000       0.0000000000E+000       2.7777777791E-003       0.0000000000E+000
       2.0833333333E-001       1.8873724212E-002      -9.6065421049E-003       1.1060396406E+000       1.7472609144E+000       8.4792484508E-016       9.9999999878E-001       1.0000000000E-001       1.0000000000E+000       6.6666666667E-002       1.0000000000E-003       1.0000000000E-003       1.8949016005E+002       1.0000000003E+000       8.2956324306E+001       2.7777777791E-003       0.0000000000E+000
       2.0833333333E-001       5.7333443020E-002      -1.4638209474E-002       1.1067121691E+000       1.7483362361E+000       4.2863318753E-015       9.9999999878E-001       1.0000000000E-001       1.0000000000E+000       6.6666666667E-002       1.0000000000E-003       1.0000000000E-003       1.7434291360E+002       1.0000000003E+000       8.3006698757E+001       2.7777777791E-003       0.0000000000E+000
       2.0833333333E-001       9.6851141461E-002      -2.4878448058E-002       1.1079570769E+000       1.7498459686E+000       3.2674565625E-014       9.9999999878E-001       1.0000000000E-001       1.0000000000E+000       6.6666666667E-002       1.0000000000E-003       1.0000000000E-003       1.5877898501E+002       1.0000000003E+000       8.3100200296E+001       2.7777777791E-003       0.0000000000E+000
       2.0833333333E-001       1.3666693112E-001      -3.5412288355E-002       1.1097769662E+000       1.7518248970E+000       2.7242940701E-013       9.9999999878E-001       1.0000000000E-001       1.0000000000E+000       6.6666666667E-002       1.0000000000E-003       1.0000000000E-003       1.4309765407E+002       1.0000000003E+000       8.3236953822E+001       2.7777777791E-003       0.0000000000E+000
       2.0833333333E-001       1.7599788518E-001      -4.6106834155E-002       1.1120986686E+000       1.7542667552E+000       2.2614262162E-012       9.9999999878E-001       1.0000000000E-001       1.0000000000E+000       6.6666666667E-002       1.0000000000E-003       1.0000000000E-003       1.2760727419E+002       1.0000000003E+000       8.3411472183E+001       2.7777777790E-003       0.0000000000E+000
       2.0833333333E-001       2.1409841984E-001      -5.6801678017E-002       1.1147507201E+000       1.7570871150E+000       1.7638721821E-011       9.9999999879E-001       1.0000000000E-001       1.0000000000E+000       6.6666666667E-002       1.0000000000E-003       1.0000000000E-003       1.1260149137E+002       1.0000000002E+000       8.3610902756E+001       2.7777777786E-003       0.0000000000E+000
       2.0833333333E-001       2.5031472918E-001      -6.7304193003E-002       1.1174268141E+000       1.7601571020E+000       1.2343303782E-010       9.9999999890E-001       1.0000000000E-001       1.0000000000E+000       6.6666666667E-002       1.0000000000E-003       1.0000000000E-003       9.8337805179E+001       9.9999999957E-001       8.3812277398E+001       2.7777777754E-003       0.0000000000E+000
       2.0833333333E-001       2.8412521274E-001      -7.7384819909E-002       1.1196180529E+000       1.7633311005E+000       5.9181382731E-010       9.9999999937E-001       1.0000000000E-001       1.0000000000E+000       6.6666666667E-002       1.0000000000E-003       1.0000000000E-003       8.5021646567E+001       9.9999999664E-001       8.3977427321E+001       2.7777777614E-003       0.0000000000E+000
       2.0833333333E-001       3.1516234544E-001      -8.6771206054E-002       1.1205056649E+000       1.7664707499E+000       2.1394483842E-009       1.0000000009E+000       1.0000000000E-001       1.0000000000E+000       6.6666666667E-002       1.0000000000E-003       1.0000000000E-003       7.2797764495E+001       9.9999998694E-001       8.4044935983E+001       2.7777777152E-003       0.0000000000E+000
       2.0833333333E-001       3.4321561122E-001      -9.5142055066E-002       1.1188215664E+000       1.7694646784E+000       6.2802928975E-009       1.0000000051E+000       1.0000000000E-001       1.0000000000E+000       6.6666666667E-002       1.0000000000E-003       1.0000000000E-003       6.1749070547E+001       9.9999996099E-001       8.3919685490E+001       2.7777775915E-003       0.0000000000E+000
       2.0833333333E-001       3.6821862997E-001      -1.0212520070E-001       1.1127084699E+000       1.7722429991E+000       1.5527189402E-008       1.0000000143E+000       1.0000000000E-001       1.0000000000E+000       6.6666666667E-002       1.0000000000E-003       1.0000000000E-003       5.1901708781E+001       9.9999990305E-001       8.3462372564E+001       2.7777773154E-003       0.0000000000E+000
       2.0833333333E-001       3.9022562849E-001      -1.0730739215E-001       1.0996384738E+000       1.7747851300E+000       3.3163729808E-008       1.0000000319E+000       1.0000000000E-001       1.0000000000E+000       6.6666666667E-002       1.0000000000E-003       1.0000000000E-003       4.3234322316E+001       9.9999979254E-001       8.2483404664E+001       2.7777767888E-003       0.0000000000E+000
       2.0833333333E-001       4.0938280595E-001      -1.1026321808E-001       1.0764741626E+000       1.7771175418E+000       6.2356194546E-008       1.0000000611E+000       1.0000000000E-001       1.0000000000E+000       6.6666666667E-002       1.0000000000E-003       1.0000000000E-003       3.5689330688E+001       9.9999960961E-001       8.0747465836E+001       2.7777759171E-003       0.0000000000E+000
       2.0833333333E-001       4.2589932138E-001      -1.1060667022E-001       1.0397707558E+000       1.7792967074E+000       1.0476331382E-007       1.0000001035E+000       1.0000000000E-001       1.0000000000E+000       6.6666666667E-002       1.0000000000E-003       1.0000000000E-003       2.9184356295E+001       9.9999934388E-001       7.7996141178E+001       2.7777746508E-003       0.0000000000E+000
       2.0833333333E-001       4.4002119401E-001      -1.0806160229E-001       9.8639711798E-001       1.7813768459E+000       1.5916457694E-007       1.0000001579E+000       1.0000000000E-001       1.0000000000E+000       6.6666666667E-002       1.0000000000E-003       1.0000000000E-003       2.3622503900E+001       9.9999900299E-001       7.3994436980E+001       2.7777730263E-003       0.0000000000E+000
       2.0833333333E-001       4.5200990049E-001      -1.0253794149E-001       9.1445520014E-001       1.7833740349E+000       2.2096743326E-007       1.0000002197E+000       1.0000000000E-001       1.0000000000E+000       6.6666666667E-002       1.0000000000E-003       1.0000000000E-003       1.8900790499E+001       9.9999861572E-001       6.8599623420E+001       2.7777711808E-003       0.0000000000E+000
       2.0833333333E-001       4.6212621624E-001      -9.4190702842E-002       8.2424807011E-001       1.7852485906E+000       2.8323324227E-007       1.0000002820E+000       1.0000000000E-001       1.0000000000E+000       6.6666666667E-002       1.0000000000E-003       1.0000000000E-003       1.4916509844E+001       9.9999822554E-001       6.1833581626E+001       2.7777693215E-003       0.0000000000E+000
       2.0833333333E-001       4.7061901023E-001      -8.3434596725E-002       7.1881535945E-001       1.7869203975E+000       3.3901593938E-007       1.0000003378E+000       1.0000000000E-001       1.0000000000E+000       6.6666666667E-002       1.0000000000E-003       1.0000000000E-003       1.1571645762E+001       9.9999787600E-001       5.3922562196E+001       2.7777676558E-003       0.0000000000E+000
       2.0833333333E-001       4.7771824678E-001      -7.0897554345E-002       6.0361163249E-001       1.7883081167E+000       3.8385953144E-007       1.0000003826E+000       1.0000000000E-001       1.0000000000E+000       6.6666666667E-002       1.0000000000E-003       1.0000000000E-003       8.7756282315E+000       9.9999759500E-001       4.5272706062E+001       2.7777663167E-003       0.0000000000E+000
       2.0833333333E-001       4.8363128336E-001      -5.7324395517E-002       4.8554899621E-001       1.7893661065E+000       4.1711955826E-007       1.0000004159E+000       1.0000000000E-001       1.0000000000E+000       6.6666666667E-002       1.0000000000E-003       1.0000000000E-003       6.4467910962E+000       9.9999738658E-001       3.6398260272E+001       2.7777653235E-003       0.0000000000E+000
       2.0833333333E-001       4.8854157621E-001      -4.3455761951E-002       3.7098881919E-001       1.7900994422E+000       4.4100302226E-007       1.0000004398E+000       1.0000000000E-001       1.0000000000E+000       6.6666666667E-002       1.0000000000E-003       1.0000000000E-003       4.5128814626E+000       9.9999723692E-001       2.7771774094E+001       2.7777646103E-003       0.0000000000E+000
       2.0833333333E-001       4.9260902662E-001      -2.9919438214E-002       2.6424524650E-001       1.7905539184E+000       4.5641690161E-007       1.0000004552E+000       1.0000000000E-001       1.0000000000E+000       6.6666666667E-002       1.0000000000E-003       1.0000000000E-003       2.9109231160E+000       9.9999714034E-001       1.9713277198E+001       2.7777641501E-003       0.0000000000E+000
       2.0833333333E-001       4.9597135731E-001      -1.7177854112E-002       1.6819223236E-001       1.7907944937E+000       4.6482159967E-007       1.0000004636E+000       1.0000000000E-001       1.0000000000E+000       6.6666666667E-002       1.0000000000E-003       1.0000000000E-003       1.5866746203E+000       9.9999708767E-001       1.2436728954E+001       2.7777638991E-003       0.0000000000E+000
       2.0833333333E-001       4.9874606344E-001      -5.5263615164E-003       8.4177791161E-002       1.7908869693E+000       4.6807956416E-007       1.0000004669E+000       1.0000000000E-001       1.0000000000E+000       6.6666666667E-002       1.0000000000E-003       1.0000000000E-003       4.9386096402E-001       9.9999706725E-001       6.0441646039E+000       2.7777638018E-003       0.0000000000E+000
       2.0833333333E-001       5.0125393656E-001       5.5263615164E-003      -8.4177791161E-002       1.7908869693E+000       4.6807956416E-007       1.0000004669E+000       0.0000000000E+000       0.0000000000E+000       0.0000000000E+000       0.0000000000E+000       0.0000000000E+000       0.0000000000E+000       9.9999706725E-001       0.0000000000E+000       2.7777638018E-003      -0.0000000000E+000
       4.1666666667E-001      -1.8873724212E-002      -6.9750177262E-003       1.1830317952E+000       1.6140183448E+000       1.5067416370E-015       9.9999999878E-001       1.0000000000E-001       1.0000000000E+000       6.6666666667E-002       1.0000000000E-003       1.0000000000E-003       0.0000000000E+000       1.0000000003E+000       0.0000000000E+000       2.7777777791E-003       0.0000000000E+000
       4.1666666667E-001       1.8873724212E-002      -6.9750177262E-003       1.1830317952E+000       1.6140183448E+000       1.5067416370E-015       9.9999999878E-001       1.0000000000E-001       1.0000000000E+000       6.6666666667E-002       1.0000000000E-003       1.0000000000E-003       6.5837664088E+001       1.0000000003E+000       8.8730862774E+001       2.7777777791E-003       0.0000000000E+000
       4.1666666667E-001       5.7333443020E-002      -1.0580561567E-002       1.1835105412E+000       1.6137866067E+000       7.5578621561E-015       9.9999999878E-001       1.0000000000E-001       1.0000000000E+000       6.6666666667E-002       1.0000000000E-003       1.0000000000E-003       6.0574808627E+001       1.0000000003E+000       8.8766831297E+001       2.7777777791E-003       0.0000000000E+000
       4.1666666667E-001       9.6851141461E-002      -1.7827843017E-002       1.1843707195E+000       1.6129355606E+000       5.7283472937E-014       9.9999999878E-001       1.0000000000E-001       1.0000000000E+000       6.6666666667E-002       1.0000000000E-003       1.0000000000E-003       5.5167178476E+001       1.0000000003E+000       8.8831381911E+001       2.7777777791E-003       0.0000000000E+000
       4.1666666667E-001       1.3666693112E-001      -2.5055829231E-002       1.1855462813E+000       1.6114113650E+000       4.7773616705E-013       9.9999999878E-001       1.0000000000E-001       1.0000000000E+000       6.6666666667E-002       1.0000000000E-003       1.0000000000E-003       4.9718757310E+001       1.0000000003E+000       8.8919584340E+001       2.7777777791E-003       0.0000000000E+000
       4.1666666667E-001       1.7599788518E-001      -3.2078686516E-002       1.1868872730E+000       1.6092504206E+000       3.8611595683E-012       9.9999999878E-001       1.0000000000E-001       1.0000000000E+000       6.6666666667E-002       1.0000000000E-003       1.0000000000E-003       4.4336681393E+001       1.0000000003E+000       8.9020187556E+001       2.7777777790E-003       0.0000000000E+000
       4.1666666667E-001       2.1409841984E-001      -3.8708324431E-002       1.1880780580E+000       1.6065100755E+000       2.7955547872E-011       9.9999999880E-001       1.0000000000E-001       1.0000000000E+000       6.6666666667E-002       1.0000000000E-003       1.0000000000E-003       3.9122976956E+001       1.0000000002E+000       8.9109505416E+001       2.7777777782E-003       0.0000000000E+000
       4.1666666667E-001       2.5031472918E-001      -4.4754701469E-002       1.1885227726E+000       1.6032766397E+000       1.7916593912E-010       9.9999999896E-001       1.0000000000E-001       1.0000000000E+000       6.6666666667E-002       1.0000000000E-003       1.0000000000E-003       3.4167111292E+001       9.9999999922E-001       8.9142828376E+001       2.7777777737E-003       0.0000000000E+000
       4.1666666667E-001       2.8412521274E-001      -5.0015843900E-002       1.1871651799E+000       1.5996643123E+000       8.4253478671E-010       9.9999999962E-001       1.0000000000E-001       1.0000000000E+000       6.6666666667E-002       1.0000000000E-003       1.0000000000E-003       2.9540460655E+001       9.9999999507E-001       8.9040915254E+001       2.7777777539E-003       0.0000000000E+000
       4.1666666667E-001       3.1516234544E-001      -5.4261082788E-002       1.1822578674E+000       1.5958087195E+000       3.4050672065E-009       1.0000000022E+000       1.0000000000E-001       1.0000000000E+000       6.6666666667E-002       1.0000000000E-003       1.0000000000E-003       2.5293317658E+001       9.9999997901E-001       8.8672691220E+001       2.7777776774E-003       0.0000000000E+000
       4.1666666667E-001       3.4321561122E-001      -5.7219463004E-002       1.1711610846E+000       1.5918592807E+000       1.3894591082E-008       1.0000000127E+000       1.0000000000E-001       1.0000000000E+000       6.6666666667E-002       1.0000000000E-003       1.0000000000E-003       2.1454490297E+001       9.9999991328E-001       8.7840179345E+001       2.7777773642E-003       0.0000000000E+000
       4.1666666667E-001       3.6821862997E-001      -5.8591720311E-002       1.1503265884E+000       1.5879726728E+000       6.4785650427E-008       1.0000000636E+000       1.0000000000E-001       1.0000000000E+000       6.6666666667E-002       1.0000000000E-003       1.0000000000E-003       1.8033065936E+001       9.9999959439E-001       8.6277319379E+001       2.7777758445E-003       0.0000000000E+000
       4.1666666667E-001       3.9022562849E-001      -5.8101730639E-002       1.1156683891E+000       1.5843063078E+000       2.9653804910E-007       1.0000002953E+000       1.0000000000E-001       1.0000000000E+000       6.6666666667E-002       1.0000000000E-003       1.0000000000E-003       1.5021637532E+001       9.9999814217E-001       8.3677809285E+001       2.7777689242E-003       0.0000000000E+000
       4.1666666667E-001       4.0938280595E-001      -5.5587945704E-002       1.0634869446E+000       1.5810079518E+000       1.1286817088E-006       1.0000011274E+000       1.0000000000E-001       1.0000000000E+000       6.6666666667E-002       1.0000000000E-003       1.0000000000E-003       1.2400228330E+001       9.9999292775E-001       7.9764437693E+001       2.7777440757E-003       0.0000000000E+000
       4.1666666667E-001       4.2589932138E-001      -5.1109976149E-002       9.9187319459E-001       1.5781992232E+000       3.5197283658E-006       1.0000035183E+000       1.0000000000E-001       1.0000000000E+000       6.6666666667E-002       1.0000000000E-003       1.0000000000E-003       1.0140261785E+001       9.9997794463E-001       7.4394375825E+001       2.7776726777E-003       0.0000000000E+000
       4.1666666667E-001       4.4002119401E-001      -4.5018928203E-002       9.0206354860E-001       1.5759569902E+000       9.0584547285E-006       1.0000090562E+000       1.0000000000E-001       1.0000000000E+000       6.6666666667E-002       1.0000000000E-003       1.0000000000E-003       8.2081091043E+000       9.9994323584E-001       6.7660714680E+001       2.7775072913E-003       0.0000000000E+000
       4.1666666667E-001       4.5200990049E-001      -3.7934919492E-002       7.9879671447E-001       1.5743014855E+000       1.9485068667E-005       1.0000194793E+000       1.0000000000E-001       1.0000000000E+000       6.6666666667E-002       1.0000000000E-003       1.0000000000E-003       6.5679743453E+000       9.9987789213E-001       5.9919053850E+001       2.7771959640E-003       0.0000000000E+000
       4.1666666667E-001       4.6212621624E-001      -3.0609690551E-002       6.8914238215E-001       1.5731971301E+000       3.5513591142E-005       1.0000354972E+000       1.0000000000E-001       1.0000000000E+000       6.6666666667E-002       1.0000000000E-003       1.0000000000E-003       5.1840778867E+000       9.9977742937E-001       5.1699446394E+001       2.7767173995E-003       0.0000000000E+000
       4.1666666667E-001       4.7061901023E-001      -2.3707981689E-002       5.8085299559E-001       1.5725647835E+000       5.5588093339E-005       1.0000555499E+000       1.0000000000E-001       1.0000000000E+000       6.6666666667E-002       1.0000000000E-003       1.0000000000E-003       4.0222184755E+000       9.9965158721E-001       4.3582098390E+001       2.7761180843E-003       0.0000000000E+000
       4.1666666667E-001       4.7771824678E-001      -1.7398094061E-002       4.7704976399E-001       1.5722998787E+000       7.5621543902E-005       1.0000755519E+000       1.0000000000E-001       1.0000000000E+000       6.6666666667E-002       1.0000000000E-003       1.0000000000E-003       3.0508079736E+000       9.9952597995E-001       3.5794066343E+001       2.7755200508E-003       0.0000000000E+000