 VARIABLES ="X","Y","U","W","P","C","T","k","eps", "v2","omega","nuSA","yplus","RHO","Pe","mu","mut"
 ZONE I=            98  J=            40  F=POINT 
       0.0000000000E+000      -9.2667936736E-003                     NaN                     NaN                     NaN       0.0000000000E+000       1.0000000000E+000       0.0000000000E+000       0.0000000000E+000       0.0000000000E+000       0.0000000000E+000       0.0000000000E+000       0.0000000000E+000       1.0000000000E+000       0.0000000000E+000       2.7777777778E-003       0.0000000000E+000
       0.0000000000E+000       9.2667936736E-003                     NaN                     NaN                     NaN       0.0000000000E+000       1.0000000000E+000       1.0000000000E-001       1.0000000000E+000       6.6666666667E-002       1.0000000000E-003       1.0000000000E-003       0.0000000000E+000       1.0000000000E+000       0.0000000000E+000       2.7777777778E-003       0.0000000000E+000
       0.0000000000E+000       2.7920250859E-002                     NaN                     NaN                     NaN       0.0000000000E+000       1.0000000000E+000       1.0000000000E-001       1.0000000000E+000       6.6666666667E-002       1.0000000000E-003       1.0000000000E-003       0.0000000000E+000       1.0000000000E+000       0.0000000000E+000       2.7777777778E-003       0.0000000000E+000
       0.0000000000E+000       4.6803837788E-002                     NaN                     NaN                     NaN       0.0000000000E+000       1.0000000000E+000       1.0000000000E-001       1.0000000000E+000       6.6666666667E-002       1.0000000000E-003       1.0000000000E-003       0.0000000000E+000       1.0000000000E+000       0.0000000000E+000       2.7777777778E-003       0.0000000000E+000
       0.0000000000E+000       6.5897829027E-002                     NaN                     NaN                     NaN       0.0000000000E+000       1.0000000000E+000       1.0000000000E-001       1.0000000000E+000       6.6666666667E-002       1.0000000000E-003       1.0000000000E-003       0.0000000000E+000       1.0000000000E+000       0.0000000000E+000       2.7777777778E-003       0.0000000000E+000
       0.0000000000E+000       8.5181526490E-002                     NaN                     NaN                     NaN       0.0000000000E+000       1.0000000000E+000       1.0000000000E-001       1.0000000000E+000       6.6666666667E-002       1.0000000000E-003       1.0000000000E-003       0.0000000000E+000       1.0000000000E+000       0.0000000000E+000       2.7777777778E-003       0.0000000000E+000
       0.0000000000E+000       1.0463334093E-001                     NaN                     NaN                     NaN       0.0000000000E+000       1.0000000000E+000       1.0000000000E-001       1.0000000000E+000       6.6666666667E-002       1.0000000000E-003       1.0000000000E-003       0.0000000000E+000       1.0000000000E+000       0.0000000000E+000       2.7777777778E-003       0.0000000000E+000
       0.0000000000E+000       1.2423088209E-001                     NaN                     NaN                     NaN       0.0000000000E+000       1.0000000000E+000       1.0000000000E-001       1.0000000000E+000       6.6666666667E-002       1.0000000000E-003       1.0000000000E-003       0.0000000000E+000       1.0000000000E+000       0.0000000000E+000       2.7777777778E-003       0.0000000000E+000
       0.0000000000E+000       1.4395105684E-001                     NaN                     NaN                     NaN       0.0000000000E+000       1.0000000000E+000       1.0000000000E-001       1.0000000000E+000       6.6666666667E-002       1.0000000000E-003       1.0000000000E-003       0.0000000000E+000       1.0000000000E+000       0.0000000000E+000       2.7777777778E-003       0.0000000000E+000
       0.0000000000E+000       1.6377017442E-001                     NaN                     NaN                     NaN       0.0000000000E+000       1.0000000000E+000       1.0000000000E-001       1.0000000000E+000       6.6666666667E-002       1.0000000000E-003       1.0000000000E-003       0.0000000000E+000       1.0000000000E+000       0.0000000000E+000       2.7777777778E-003       0.0000000000E+000
       0.0000000000E+000       1.8366405776E-001                     NaN                     NaN                     NaN       0.0000000000E+000       1.0000000000E+000       1.0000000000E-001       1.0000000000E+000       6.6666666667E-002       1.0000000000E-003       1.0000000000E-003       0.0000000000E+000       1.0000000000E+000       0.0000000000E+000       2.7777777778E-003       0.0000000000E+000
       0.0000000000E+000       2.0360815989E-001                     NaN                     NaN                     NaN       0.0000000000E+000       1.0000000000E+000       1.0000000000E-001       1.0000000000E+000       6.6666666667E-002       1.0000000000E-003       1.0000000000E-003       0.0000000000E+000       1.0000000000E+000       0.0000000000E+000       2.7777777778E-003       0.0000000000E+000
       0.0000000000E+000       2.2357768425E-001                     NaN                     NaN                     NaN       0.0000000000E+000       1.0000000000E+000       1.0000000000E-001       1.0000000000E+000       6.6666666667E-002       1.0000000000E-003       1.0000000000E-003       0.0000000000E+000       1.0000000000E+000       0.0000000000E+000       2.7777777778E-003       0.0000000000E+000
       0.0000000000E+000       2.4354770750E-001                     NaN                     NaN                     NaN       0.0000000000E+000       1.0000000000E+000       1.0000000000E-001       1.0000000000E+000       6.6666666667E-002       1.0000000000E-003       1.0000000000E-003       0.0000000000E+000       1.0000000000E+000       0.0000000000E+000       2.7777777778E-003       0.0000000000E+000
       0.0000000000E+000       2.6349330387E-001                     NaN                     NaN                     NaN       0.0000000000E+000       1.0000000000E+000       1.0000000000E-001       1.0000000000E+000       6.6666666667E-002       1.0000000000E-003       1.0000000000E-003       0.0000000000E+000       1.0000000000E+000       0.0000000000E+000       2.7777777778E-003       0.0000000000E+000
       0.0000000000E+000       2.8338966932E-001                     NaN                     NaN                     NaN       0.0000000000E+000       1.0000000000E+000       1.0000000000E-001       1.0000000000E+000       6.6666666667E-002       1.0000000000E-003       1.0000000000E-003       0.0000000000E+000       1.0000000000E+000       0.0000000000E+000       2.7777777778E-003       0.0000000000E+000
       0.0000000000E+000       3.0321224457E-001                     NaN                     NaN                     NaN       0.0000000000E+000       1.0000000000E+000       1.0000000000E-001       1.0000000000E+000       6.6666666667E-002       1.0000000000E-003       1.0000000000E-003       0.0000000000E+000       1.0000000000E+000       0.0000000000E+000       2.7777777778E-003       0.0000000000E+000
       0.0000000000E+000       3.2293683551E-001                     NaN                     NaN                     NaN       0.0000000000E+000       1.0000000000E+000       1.0000000000E-001       1.0000000000E+000       6.6666666667E-002       1.0000000000E-003       1.0000000000E-003       0.0000000000E+000       1.0000000000E+000       0.0000000000E+000       2.7777777778E-003       0.0000000000E+000
       0.0000000000E+000       3.4253972973E-001                     NaN                     NaN                     NaN       0.0000000000E+000       1.0000000000E+000       1.0000000000E-001       1.0000000000E+000       6.6666666667E-002       1.0000000000E-003       1.0000000000E-003       0.0000000000E+000       1.0000000000E+000       0.0000000000E+000       2.7777777778E-003       0.0000000000E+000
       0.0000000000E+000       3.6199780814E-001                     NaN                     NaN                     NaN       0.0000000000E+000       1.0000000000E+000       1.0000000000E-001       1.0000000000E+000       6.6666666667E-002       1.0000000000E-003       1.0000000000E-003       0.0000000000E+000       1.0000000000E+000       0.0000000000E+000       2.7777777778E-003       0.0000000000E+000
       0.0000000000E+000       3.8128865043E-001                     NaN                     NaN                     NaN       0.0000000000E+000       1.0000000000E+000       1.0000000000E-001       1.0000000000E+000       6.6666666667E-002       1.0000000000E-003       1.0000000000E-003       0.0000000000E+000       1.0000000000E+000       0.0000000000E+000       2.7777777778E-003       0.0000000000E+000
       0.0000000000E+000       4.0039063353E-001                     NaN                     NaN                     NaN       0.0000000000E+000       1.0000000000E+000       1.0000000000E-001       1.0000000000E+000       6.6666666667E-002       1.0000000000E-003       1.0000000000E-003       0.0000000000E+000       1.0000000000E+000       0.0000000000E+000       2.7777777778E-003       0.0000000000E+000
       0.0000000000E+000       4.1928302209E-001                     NaN                     NaN                     NaN       0.0000000000E+000       1.0000000000E+000       1.0000000000E-001       1.0000000000E+000       6.6666666667E-002       1.0000000000E-003       1.0000000000E-003       0.0000000000E+000       1.0000000000E+000       0.0000000000E+000       2.7777777778E-003       0.0000000000E+000
       0.0000000000E+000       4.3794605030E-001                     NaN                     NaN                     NaN       0.0000000000E+000       1.0000000000E+000       1.0000000000E-001       1.0000000000E+000       6.6666666667E-002       1.0000000000E-003       1.0000000000E-003       0.0000000000E+000       1.0000000000E+000       0.0000000000E+000       2.7777777778E-003       0.0000000000E+000
       0.0000000000E+000       4.5636099455E-001                     NaN                     NaN                     NaN       0.0000000000E+000       1.0000000000E+000       1.0000000000E-001       1.0000000000E+000       6.6666666667E-002       1.0000000000E-003       1.0000000000E-003       0.0000000000E+000       1.0000000000E+000       0.0000000000E+000       2.7777777778E-003       0.0000000000E+000
       0.0000000000E+000       4.7451023629E-001                     NaN                     NaN                     NaN       0.0000000000E+000       1.0000000000E+000       1.0000000000E-001       1.0000000000E+000       6.6666666667E-002       1.0000000000E-003       1.0000000000E-003       0.0000000000E+000       1.0000000000E+000       0.0000000000E+000       2.7777777778E-003       0.0000000000E+000
       0.0000000000E+000       4.9237731502E-001                     NaN                     NaN                     NaN       0.0000000000E+000       1.0000000000E+000       1.0000000000E-001       1.0000000000E+000       6.6666666667E-002       1.0000000000E-003       1.0000000000E-003       0.0000000000E+000       1.0000000000E+000       0.0000000000E+000       2.7777777778E-003       0.0000000000E+000
       0.0000000000E+000       5.0994697103E-001                     NaN                     NaN                     NaN       0.0000000000E+000       1.0000000000E+000       1.0000000000E-001       1.0000000000E+000       6.6666666667E-002       1.0000000000E-003       1.0000000000E-003       0.0000000000E+000       1.0000000000E+000       0.0000000000E+000       2.7777777778E-003       0.0000000000E+000
       0.0000000000E+000       5.2720517819E-001                     NaN                     NaN                     NaN       0.0000000000E+000       1.0000000000E+000       1.0000000000E-001       1.0000000000E+000       6.6666666667E-002       1.0000000000E-003       1.0000000000E-003       0.0000000000E+000       1.0000000000E+000       0.0000000000E+000       2.7777777778E-003       0.0000000000E+000
       0.0000000000E+000       5.4413916653E-001                     NaN                     NaN                     NaN       0.0000000000E+000       1.0000000000E+000       1.0000000000E-001       1.0000000000E+000       6.6666666667E-002       1.0000000000E-003       1.0000000000E-003       0.0000000000E+000       1.0000000000E+000       0.0000000000E+000       2.7777777778E-003       0.0000000000E+000
       0.0000000000E+000       5.6073743527E-001                     NaN                     NaN                     NaN       0.0000000000E+000       1.0000000000E+000       1.0000000000E-001       1.0000000000E+000       6.6666666667E-002       1.0000000000E-003       1.0000000000E-003       0.0000000000E+000       1.0000000000E+000       0.0000000000E+000       2.7777777778E-003       0.0000000000E+000
       0.0000000000E+000       5.7698975628E-001                     NaN                     NaN                     NaN       0.0000000000E+000       1.0000000000E+000       1.0000000000E-001       1.0000000000E+000       6.6666666667E-002       1.0000000000E-003       1.0000000000E-003       0.0000000000E+000       1.0000000000E+000       0.0000000000E+000       2.7777777778E-003       0.0000000000E+000
       0.0000000000E+000       5.9288716879E-001                     NaN                     NaN                     NaN       0.0000000000E+000       1.0000000000E+000       1.0000000000E-001       1.0000000000E+000       6.6666666667E-002       1.0000000000E-003       1.0000000000E-003       0.0000000000E+000       1.0000000000E+000       0.0000000000E+000       2.7777777778E-003       0.0000000000E+000
       0.0000000000E+000       6.0842196558E-001                     NaN                     NaN                     NaN       0.0000000000E+000       1.0000000000E+000       1.0000000000E-001       1.0000000000E+000       6.6666666667E-002       1.0000000000E-003       1.0000000000E-003       0.0000000000E+000       1.0000000000E+000       0.0000000000E+000       2.7777777778E-003       0.0000000000E+000
       0.0000000000E+000       6.2358767156E-001                     NaN                     NaN                     NaN       0.0000000000E+000       1.0000000000E+000       1.0000000000E-001       1.0000000000E+000       6.6666666667E-002       1.0000000000E-003       1.0000000000E-003       0.0000000000E+000       1.0000000000E+000       0.0000000000E+000       2.7777777778E-003       0.0000000000E+000
       0.0000000000E+000       6.3837901513E-001                     NaN                     NaN                     NaN       0.0000000000E+000       1.0000000000E+000       1.0000000000E-001       1.0000000000E+000       6.6666666667E-002       1.0000000000E-003       1.0000000000E-003       0.0000000000E+000       1.0000000000E+000       0.0000000000E+000       2.7777777778E-003       0.0000000000E+000
       0.0000000000E+000       6.5279189332E-001                     NaN                     NaN                     NaN       0.0000000000E+000       1.0000000000E+000       1.0000000000E-001       1.0000000000E+000       6.6666666667E-002       1.0000000000E-003       1.0000000000E-003       0.0000000000E+000       1.0000000000E+000       0.0000000000E+000       2.7777777778E-003       0.0000000000E+000
       0.0000000000E+000       6.6682333117E-001                     NaN                     NaN                     NaN       0.0000000000E+000       1.0000000000E+000       1.0000000000E-001       1.0000000000E+000       6.6666666667E-002       1.0000000000E-003       1.0000000000E-003       0.0000000000E+000       1.0000000000E+000       0.0000000000E+000       2.7777777778E-003       0.0000000000E+000
       0.0000000000E+000       6.8047143635E-001                     NaN                     NaN                     NaN       0.0000000000E+000       1.0000000000E+000       1.0000000000E-001       1.0000000000E+000       6.6666666667E-002       1.0000000000E-003       1.0000000000E-003       0.0000000000E+000       1.0000000000E+000       0.0000000000E+000       2.7777777778E-003       0.0000000000E+000
       0.0000000000E+000       6.9373534961E-001                     NaN                     NaN                     NaN       0.0000000000E+000       1.0000000000E+000       1.0000000000E-001       1.0000000000E+000       6.6666666667E-002       1.0000000000E-003       1.0000000000E-003       0.0000000000E+000       1.0000000000E+000       0.0000000000E+000       2.7777777778E-003       0.0000000000E+000
       0.0000000000E+000       7.0661519181E-001                     NaN                     NaN                     NaN       0.0000000000E+000       1.0000000000E+000       1.0000000000E-001       1.0000000000E+000       6.6666666667E-002       1.0000000000E-003       1.0000000000E-003       0.0000000000E+000       1.0000000000E+000       0.0000000000E+000       2.7777777778E-003       0.0000000000E+000
       0.0000000000E+000       7.1911200840E-001                     NaN                     NaN                     NaN       0.0000000000E+000       1.0000000000E+000       1.0000000000E-001       1.0000000000E+000       6.6666666667E-002       1.0000000000E-003       1.0000000000E-003       0.0000000000E+000       1.0000000000E+000       0.0000000000E+000       2.7777777778E-003       0.0000000000E+000
       0.0000000000E+000       7.3122771176E-001                     NaN                     NaN                     NaN       0.0000000000E+000       1.0000000000E+000       1.0000000000E-001       1.0000000000E+000       6.6666666667E-002       1.0000000000E-003       1.0000000000E-003       0.0000000000E+000       1.0000000000E+000       0.0000000000E+000       2.7777777778E-003       0.0000000000E+000
       0.0000000000E+000       7.4296502236E-001                     NaN                     NaN                     NaN       0.0000000000E+000       1.0000000000E+000       1.0000000000E-001       1.0000000000E+000       6.6666666667E-002       1.0000000000E-003       1.0000000000E-003       0.0000000000E+000       1.0000000000E+000       0.0000000000E+000       2.7777777778E-003       0.0000000000E+000
       0.0000000000E+000       7.5432740911E-001                     NaN                     NaN                     NaN       0.0000000000E+000       1.0000000000E+000       1.0000000000E-001       1.0000000000E+000       6.6666666667E-002       1.0000000000E-003       1.0000000000E-003       0.0000000000E+000       1.0000000000E+000       0.0000000000E+000       2.7777777778E-003       0.0000000000E+000
       0.0000000000E+000       7.6531902954E-001                     NaN                     NaN                     NaN       0.0000000000E+000       1.0000000000E+000       1.0000000000E-001       1.0000000000E+000       6.6666666667E-002       1.0000000000E-003       1.0000000000E-003       0.0000000000E+000       1.0000000000E+000       0.0000000000E+000       2.7777777778E-003       0.0000000000E+000
       0.0000000000E+000       7.7594467035E-001                     NaN                     NaN                     NaN       0.0000000000E+000       1.0000000000E+000       1.0000000000E-001       1.0000000000E+000       6.6666666667E-002       1.0000000000E-003       1.0000000000E-003       0.0000000000E+000       1.0000000000E+000       0.0000000000E+000       2.7777777778E-003       0.0000000000E+000
       0.0000000000E+000       7.8620968872E-001                     NaN                     NaN                     NaN       0.0000000000E+000       1.0000000000E+000       1.0000000000E-001       1.0000000000E+000       6.6666666667E-002       1.0000000000E-003       1.0000000000E-003       0.0000000000E+000       1.0000000000E+000       0.0000000000E+000       2.7777777778E-003       0.0000000000E+000
       0.0000000000E+000       7.9611995484E-001                     NaN                     NaN                     NaN       0.0000000000E+000       1.0000000000E+000       1.0000000000E-001       1.0000000000E+000       6.6666666667E-002       1.0000000000E-003       1.0000000000E-003       0.0000000000E+000       1.0000000000E+000       0.0000000000E+000       2.7777777778E-003       0.0000000000E+000
       0.0000000000E+000       8.0568179598E-001                     NaN                     NaN                     NaN       0.0000000000E+000       1.0000000000E+000       1.0000000000E-001       1.0000000000E+000       6.6666666667E-002       1.0000000000E-003       1.0000000000E-003       0.0000000000E+000       1.0000000000E+000       0.0000000000E+000       2.7777777778E-003       0.0000000000E+000
       0.0000000000E+000       8.1490194236E-001                     NaN                     NaN                     NaN       0.0000000000E+000       1.0000000000E+000       1.0000000000E-001       1.0000000000E+000       6.6666666667E-002       1.0000000000E-003       1.0000000000E-003       0.0000000000E+000       1.0000000000E+000       0.0000000000E+000       2.7777777778E-003       0.0000000000E+000
       0.0000000000E+000       8.2378747516E-001                     NaN                     NaN                     NaN       0.0000000000E+000       1.0000000000E+000       1.0000000000E-001       1.0000000000E+000       6.6666666667E-002       1.0000000000E-003       1.0000000000E-003       0.0000000000E+000       1.0000000000E+000       0.0000000000E+000       2.7777777778E-003       0.0000000000E+000
       0.0000000000E+000       8.3234577677E-001                     NaN                     NaN                     NaN       0.0000000000E+000       1.0000000000E+000       1.0000000000E-001       1.0000000000E+000       6.6666666667E-002       1.0000000000E-003       1.0000000000E-003       0.0000000000E+000       1.0000000000E+000       0.0000000000E+000       2.7777777778E-003       0.0000000000E+000
       0.0000000000E+000       8.4058448357E-001                     NaN                     NaN                     NaN       0.0000000000E+000       1.0000000000E+000       1.0000000000E-001       1.0000000000E+000       6.6666666667E-002       1.0000000000E-003       1.0000000000E-003       0.0000000000E+000       1.0000000000E+000       0.0000000000E+000       2.7777777778E-003       0.0000000000E+000
       0.0000000000E+000       8.4851144115E-001                     NaN                     NaN                     NaN       0.0000000000E+000       1.0000000000E+000       1.0000000000E-001       1.0000000000E+000       6.6666666667E-002       1.0000000000E-003       1.0000000000E-003       0.0000000000E+000       1.0000000000E+000       0.0000000000E+000       2.7777777778E-003       0.0000000000E+000
       0.0000000000E+000       8.5613466229E-001                     NaN                     NaN                     NaN       0.0000000000E+000       1.0000000000E+000       1.0000000000E-001       1.0000000000E+000       6.6666666667E-002       1.0000000000E-003       1.0000000000E-003       0.0000000000E+000       1.0000000000E+000       0.0000000000E+000       2.7777777778E-003       0.0000000000E+000
       0.0000000000E+000       8.6346228758E-001                     NaN                     NaN                     NaN       0.0000000000E+000       1.0000000000E+000       1.0000000000E-001       1.0000000000E+000       6.6666666667E-002       1.0000000000E-003       1.0000000000E-003       0.0000000000E+000       1.0000000000E+000       0.0000000000E+000       2.7777777778E-003       0.0000000000E+000
       0.0000000000E+000       8.7050254873E-001                     NaN                     NaN                     NaN       0.0000000000E+000       1.0000000000E+000       1.0000000000E-001       1.0000000000E+000       6.6666666667E-002       1.0000000000E-003       1.0000000000E-003       0.0000000000E+000       1.0000000000E+000       0.0000000000E+000       2.7777777778E-003       0.0000000000E+000
       0.0000000000E+000       8.7726373460E-001                     NaN                     NaN                     NaN       0.0000000000E+000       1.0000000000E+000       1.0000000000E-001       1.0000000000E+000       6.6666666667E-002       1.0000000000E-003       1.0000000000E-003       0.0000000000E+000       1.0000000000E+000       0.0000000000E+000       2.7777777778E-003       0.0000000000E+000
       0.0000000000E+000       8.8375415988E-001                     NaN                     NaN                     NaN       0.0000000000E+000       1.0000000000E+000       1.0000000000E-001       1.0000000000E+000       6.6666666667E-002       1.0000000000E-003       1.0000000000E-003       0.0000000000E+000       1.0000000000E+000       0.0000000000E+000       2.7777777778E-003       0.0000000000E+000
       0.0000000000E+000       8.8998213639E-001                     NaN                     NaN                     NaN       0.0000000000E+000       1.0000000000E+000       1.0000000000E-001       1.0000000000E+000       6.6666666667E-002       1.0000000000E-003       1.0000000000E-003       0.0000000000E+000       1.0000000000E+000       0.0000000000E+000       2.7777777778E-003       0.0000000000E+000
       0.0000000000E+000       8.9595594686E-001                     NaN                     NaN                     NaN       0.0000000000E+000       1.0000000000E+000       1.0000000000E-001       1.0000000000E+000       6.6666666667E-002       1.0000000000E-003       1.0000000000E-003       0.0000000000E+000       1.0000000000E+000       0.0000000000E+000       2.7777777778E-003       0.0000000000E+000
       0.0000000000E+000       9.0168382125E-001                     NaN                     NaN                     NaN       0.0000000000E+000       1.0000000000E+000       1.0000000000E-001       1.0000000000E+000       6.6666666667E-002       1.0000000000E-003       1.0000000000E-003       0.0000000000E+000       1.0000000000E+000       0.0000000000E+000       2.7777777778E-003       0.0000000000E+000
       0.0000000000E+000       9.0717391533E-001                     NaN                     NaN                     NaN       0.0000000000E+000       1.0000000000E+000       1.0000000000E-001       1.0000000000E+000       6.6666666667E-002       1.0000000000E-003       1.0000000000E-003       0.0000000000E+000       1.0000000000E+000       0.0000000000E+000       2.7777777778E-003       0.0000000000E+000
       0.0000000000E+000       9.1243429153E-001                     NaN                     NaN                     NaN       0.0000000000E+000       1.0000000000E+000       1.0000000000E-001       1.0000000000E+000       6.6666666667E-002       1.0000000000E-003       1.0000000000E-003       0.0000000000E+000       1.0000000000E+000       0.0000000000E+000       2.7777777778E-003       0.0000000000E+000
       0.0000000000E+000       9.1747290199E-001                     NaN                     NaN                     NaN       0.0000000000E+000       1.0000000000E+000       1.0000000000E-001       1.0000000000E+000       6.6666666667E-002       1.0000000000E-003       1.0000000000E-003       0.0000000000E+000       1.0000000000E+000       0.0000000000E+000       2.7777777778E-003       0.0000000000E+000
       0.0000000000E+000       9.2229757354E-001                     NaN                     NaN                     NaN       0.0000000000E+000       1.0000000000E+000       1.0000000000E-001       1.0000000000E+000       6.6666666667E-002       1.0000000000E-003       1.0000000000E-003       0.0000000000E+000       1.0000000000E+000       0.0000000000E+000       2.7777777778E-003       0.0000000000E+000
       0.0000000000E+000       9.2691599462E-001                     NaN                     NaN                     NaN       0.0000000000E+000       1.0000000000E+000       1.0000000000E-001       1.0000000000E+000       6.6666666667E-002       1.0000000000E-003       1.0000000000E-003       0.0000000000E+000       1.0000000000E+000       0.0000000000E+000       2.7777777778E-003       0.0000000000E+000
       0.0000000000E+000       9.3133570398E-001                     NaN                     NaN                     NaN       0.0000000000E+000       1.0000000000E+000       1.0000000000E-001       1.0000000000E+000       6.6666666667E-002       1.0000000000E-003       1.0000000000E-003       0.0000000000E+000       1.0000000000E+000       0.0000000000E+000       2.7777777778E-003       0.0000000000E+000
       0.0000000000E+000       9.3556408104E-001                     NaN                     NaN                     NaN       0.0000000000E+000       1.0000000000E+000       1.0000000000E-001       1.0000000000E+000       6.6666666667E-002       1.0000000000E-003       1.0000000000E-003       0.0000000000E+000       1.0000000000E+000       0.0000000000E+000       2.7777777778E-003       0.0000000000E+000
       0.0000000000E+000       9.3960833779E-001                     NaN                     NaN                     NaN       0.0000000000E+000       1.0000000000E+000       1.0000000000E-001       1.0000000000E+000       6.6666666667E-002       1.0000000000E-003       1.0000000000E-003       0.0000000000E+000       1.0000000000E+000       0.0000000000E+000       2.7777777778E-003       0.0000000000E+000
       0.0000000000E+000       9.4347551212E-001                     NaN                     NaN                     NaN       0.0000000000E+000       1.0000000000E+000       1.0000000000E-001       1.0000000000E+000       6.6666666667E-002       1.0000000000E-003       1.0000000000E-003       0.0000000000E+000       1.0000000000E+000       0.0000000000E+000       2.7777777778E-003       0.0000000000E+000