 VARIABLES ="X","Y","U","W","P","C","T","k","eps", "v2","omega","nuSA","yplus","RHO","Pe","mu","mut"
 ZONE I=            98  J=            40  F=POINT 
       0.0000000000E+000      -1.0100607860E-003      -0.0000000000E+000      -3.6350685398E-001       0.0000000000E+000       0.0000000000E+000       9.9999999878E-001       0.0000000000E+000       0.0000000000E+000       0.0000000000E+000       0.0000000000E+000       0.0000000000E+000       0.0000000000E+000       1.0000000003E+000       0.0000000000E+000       2.7777777791E-003       0.0000000000E+000
       0.0000000000E+000       1.0100607860E-003       0.0000000000E+000       3.6350685398E-001       0.0000000000E+000       0.0000000000E+000       9.9999999878E-001       1.0000000000E-001       1.0000000000E+000       6.6666666667E-002       1.0000000000E-003       1.0000000000E-003       0.0000000000E+000       1.0000000003E+000       0.0000000000E+000       2.7777777791E-003       0.0000000000E+000
       0.0000000000E+000       3.1294375279E-003       0.0000000000E+000       1.1246998165E+000       0.0000000000E+000       0.0000000000E+000       9.9999999878E-001       1.0000000000E-001       1.0000000000E+000       6.6666666667E-002       1.0000000000E-003       1.0000000000E-003       0.0000000000E+000       1.0000000003E+000       0.0000000000E+000       2.7777777791E-003       0.0000000000E+000
       0.0000000000E+000       5.4568238521E-003       0.0000000000E+000       1.9587423672E+000       0.0000000000E+000       0.0000000000E+000       9.9999999878E-001       1.0000000000E-001       1.0000000000E+000       6.6666666667E-002       1.0000000000E-003       1.0000000000E-003       0.0000000000E+000       1.0000000003E+000       0.0000000000E+000       2.7777777791E-003       0.0000000000E+000
       0.0000000000E+000       8.0120745591E-003       0.0000000000E+000       2.8722014576E+000       0.0000000000E+000       0.0000000000E+000       9.9999999878E-001       1.0000000000E-001       1.0000000000E+000       6.6666666667E-002       1.0000000000E-003       1.0000000000E-003       0.0000000000E+000       1.0000000003E+000       0.0000000000E+000       2.7777777791E-003       0.0000000000E+000
       0.0000000000E+000       1.0816823264E-002       0.0000000000E+000       3.8721515593E+000       0.0000000000E+000       0.0000000000E+000       9.9999999878E-001       1.0000000000E-001       1.0000000000E+000       6.6666666667E-002       1.0000000000E-003       1.0000000000E-003       0.0000000000E+000       1.0000000003E+000       0.0000000000E+000       2.7777777791E-003       0.0000000000E+000
       0.0000000000E+000       1.3894617523E-002       0.0000000000E+000       4.9661958301E+000       0.0000000000E+000       0.0000000000E+000       9.9999999878E-001       1.0000000000E-001       1.0000000000E+000       6.6666666667E-002       1.0000000000E-003       1.0000000000E-003       0.0000000000E+000       1.0000000003E+000       0.0000000000E+000       2.7777777791E-003       0.0000000000E+000
       0.0000000000E+000       1.7271059037E-002       0.0000000000E+000       6.1624838690E+000       0.0000000000E+000       0.0000000000E+000       9.9999999878E-001       1.0000000000E-001       1.0000000000E+000       6.6666666667E-002       1.0000000000E-003       1.0000000000E-003       0.0000000000E+000       1.0000000003E+000       0.0000000000E+000       2.7777777791E-003       0.0000000000E+000
       0.0000000000E+000       2.0973947879E-002       0.0000000000E+000       7.4697247813E+000       0.0000000000E+000       0.0000000000E+000       9.9999999878E-001       1.0000000000E-001       1.0000000000E+000       6.6666666667E-002       1.0000000000E-003       1.0000000000E-003       0.0000000000E+000       1.0000000003E+000       0.0000000000E+000       2.7777777791E-003       0.0000000000E+000
       0.0000000000E+000       2.5033429320E-002       0.0000000000E+000       8.8971940242E+000       0.0000000000E+000       0.0000000000E+000       9.9999999878E-001       1.0000000000E-001       1.0000000000E+000       6.6666666667E-002       1.0000000000E-003       1.0000000000E-003       0.0000000000E+000       1.0000000003E+000       0.0000000000E+000       2.7777777791E-003       0.0000000000E+000
       0.0000000000E+000       2.9482141392E-002       0.0000000000E+000       1.0454732217E+001       0.0000000000E+000       0.0000000000E+000       9.9999999878E-001       1.0000000000E-001       1.0000000000E+000       6.6666666667E-002       1.0000000000E-003       1.0000000000E-003       0.0000000000E+000       1.0000000003E+000       0.0000000000E+000       2.7777777791E-003       0.0000000000E+000
       0.0000000000E+000       3.4355360827E-002       0.0000000000E+000       1.2152733778E+001       0.0000000000E+000       0.0000000000E+000       9.9999999878E-001       1.0000000000E-001       1.0000000000E+000       6.6666666667E-002       1.0000000000E-003       1.0000000000E-003       0.0000000000E+000       1.0000000003E+000       0.0000000000E+000       2.7777777791E-003       0.0000000000E+000
       0.0000000000E+000       3.9691144380E-002       0.0000000000E+000       1.4002122914E+001       0.0000000000E+000       0.0000000000E+000       9.9999999878E-001       1.0000000000E-001       1.0000000000E+000       6.6666666667E-002       1.0000000000E-003       1.0000000000E-003       0.0000000000E+000       1.0000000003E+000       0.0000000000E+000       2.7777777791E-003       0.0000000000E+000
       0.0000000000E+000       4.5530461881E-002       0.0000000000E+000       1.6014314100E+001       0.0000000000E+000       0.0000000000E+000       9.9999999878E-001       1.0000000000E-001       1.0000000000E+000       6.6666666667E-002       1.0000000000E-003       1.0000000000E-003       0.0000000000E+000       1.0000000003E+000       0.0000000000E+000       2.7777777791E-003       0.0000000000E+000
       0.0000000000E+000       5.1917316536E-002       0.0000000000E+000       1.8201153819E+001       0.0000000000E+000       0.0000000000E+000       9.9999999878E-001       1.0000000000E-001       1.0000000000E+000       6.6666666667E-002       1.0000000000E-003       1.0000000000E-003       0.0000000000E+000       1.0000000003E+000       0.0000000000E+000       2.7777777791E-003       0.0000000000E+000
       0.0000000000E+000       5.8898847137E-002       0.0000000000E+000       2.0574839952E+001       0.0000000000E+000       0.0000000000E+000       9.9999999878E-001       1.0000000000E-001       1.0000000000E+000       6.6666666667E-002       1.0000000000E-003       1.0000000000E-003       0.0000000000E+000       1.0000000003E+000       0.0000000000E+000       2.7777777791E-003       0.0000000000E+000
       0.0000000000E+000       6.6525405813E-002       0.0000000000E+000       2.3147814807E+001       0.0000000000E+000       0.0000000000E+000       9.9999999878E-001       1.0000000000E-001       1.0000000000E+000       6.6666666667E-002       1.0000000000E-003       1.0000000000E-003       0.0000000000E+000       1.0000000003E+000       0.0000000000E+000       2.7777777791E-003       0.0000000000E+000
       0.0000000000E+000       7.4850603903E-002       0.0000000000E+000       2.5932627512E+001       0.0000000000E+000       0.0000000000E+000       9.9999999878E-001       1.0000000000E-001       1.0000000000E+000       6.6666666667E-002       1.0000000000E-003       1.0000000000E-003       0.0000000000E+000       1.0000000003E+000       0.0000000000E+000       2.7777777791E-003       0.0000000000E+000
       0.0000000000E+000       8.3931317363E-002       0.0000000000E+000       2.8941761217E+001       0.0000000000E+000       0.0000000000E+000       9.9999999878E-001       1.0000000000E-001       1.0000000000E+000       6.6666666667E-002       1.0000000000E-003       1.0000000000E-003       0.0000000000E+000       1.0000000003E+000       0.0000000000E+000       2.7777777791E-003       0.0000000000E+000
       0.0000000000E+000       9.3827641929E-002       0.0000000000E+000       3.2187420476E+001       0.0000000000E+000       0.0000000000E+000       9.9999999878E-001       1.0000000000E-001       1.0000000000E+000       6.6666666667E-002       1.0000000000E-003       1.0000000000E-003       0.0000000000E+000       1.0000000003E+000       0.0000000000E+000       2.7777777791E-003       0.0000000000E+000
       0.0000000000E+000       1.0460278706E-001       0.0000000000E+000       3.5681274240E+001       0.0000000000E+000       0.0000000000E+000       9.9999999878E-001       1.0000000000E-001       1.0000000000E+000       6.6666666667E-002       1.0000000000E-003       1.0000000000E-003       0.0000000000E+000       1.0000000003E+000       0.0000000000E+000       2.7777777791E-003       0.0000000000E+000
       0.0000000000E+000       1.1632289650E-001       0.0000000000E+000       3.9434150261E+001       0.0000000000E+000       0.0000000000E+000       9.9999999878E-001       1.0000000000E-001       1.0000000000E+000       6.6666666667E-002       1.0000000000E-003       1.0000000000E-003       0.0000000000E+000       1.0000000003E+000       0.0000000000E+000       2.7777777791E-003       0.0000000000E+000
       0.0000000000E+000       1.2905678245E-001       0.0000000000E+000       4.3455677365E+001       0.0000000000E+000       0.0000000000E+000       9.9999999878E-001       1.0000000000E-001       1.0000000000E+000       6.6666666667E-002       1.0000000000E-003       1.0000000000E-003       0.0000000000E+000       1.0000000003E+000       0.0000000000E+000       2.7777777791E-003       0.0000000000E+000
       0.0000000000E+000       1.4287555919E-001       0.0000000000E+000       4.7753873157E+001       0.0000000000E+000       0.0000000000E+000       9.9999999878E-001       1.0000000000E-001       1.0000000000E+000       6.6666666667E-002       1.0000000000E-003       1.0000000000E-003       0.0000000000E+000       1.0000000003E+000       0.0000000000E+000       2.7777777791E-003       0.0000000000E+000
       0.0000000000E+000       1.5785216215E-001       0.0000000000E+000       5.2334676382E+001       0.0000000000E+000       0.0000000000E+000       9.9999999878E-001       1.0000000000E-001       1.0000000000E+000       6.6666666667E-002       1.0000000000E-003       1.0000000000E-003       0.0000000000E+000       1.0000000003E+000       0.0000000000E+000       2.7777777791E-003       0.0000000000E+000
       0.0000000000E+000       1.7406073782E-001       0.0000000000E+000       5.7201425350E+001       0.0000000000E+000       0.0000000000E+000       9.9999999878E-001       1.0000000000E-001       1.0000000000E+000       6.6666666667E-002       1.0000000000E-003       1.0000000000E-003       0.0000000000E+000       1.0000000003E+000       0.0000000000E+000       2.7777777791E-003       0.0000000000E+000
       0.0000000000E+000       1.9157589134E-001       0.0000000000E+000       6.2354286828E+001       0.0000000000E+000       0.0000000000E+000       9.9999999878E-001       1.0000000000E-001       1.0000000000E+000       6.6666666667E-002       1.0000000000E-003       1.0000000000E-003       0.0000000000E+000       1.0000000003E+000       0.0000000000E+000       2.7777777791E-003       0.0000000000E+000
       0.0000000000E+000       2.1047177964E-001       0.0000000000E+000       6.7789643444E+001       0.0000000000E+000       0.0000000000E+000       9.9999999878E-001       1.0000000000E-001       1.0000000000E+000       6.6666666667E-002       1.0000000000E-003       1.0000000000E-003       0.0000000000E+000       1.0000000003E+000       0.0000000000E+000       2.7777777791E-003       0.0000000000E+000
       0.0000000000E+000       2.3082104100E-001       0.0000000000E+000       7.3499452097E+001       0.0000000000E+000       0.0000000000E+000       9.9999999878E-001       1.0000000000E-001       1.0000000000E+000       6.6666666667E-002       1.0000000000E-003       1.0000000000E-003       0.0000000000E+000       1.0000000003E+000       0.0000000000E+000       2.7777777791E-003       0.0000000000E+000
       0.0000000000E+000       2.5269355587E-001       0.0000000000E+000       7.9470591016E+001       0.0000000000E+000       0.0000000000E+000       9.9999999878E-001       1.0000000000E-001       1.0000000000E+000       6.6666666667E-002       1.0000000000E-003       1.0000000000E-003       0.0000000000E+000       1.0000000003E+000       0.0000000000E+000       2.7777777791E-003       0.0000000000E+000
       0.0000000000E+000       2.7615503885E-001       0.0000000000E+000       8.5684218780E+001       0.0000000000E+000       0.0000000000E+000       9.9999999878E-001       1.0000000000E-001       1.0000000000E+000       6.6666666667E-002       1.0000000000E-003       1.0000000000E-003       0.0000000000E+000       1.0000000003E+000       0.0000000000E+000       2.7777777791E-003       0.0000000000E+000
       0.0000000000E+000       3.0126546880E-001       0.0000000000E+000       9.2115174640E+001       0.0000000000E+000       0.0000000000E+000       9.9999999878E-001       1.0000000000E-001       1.0000000000E+000       6.6666666667E-002       1.0000000000E-003       1.0000000000E-003       0.0000000000E+000       1.0000000003E+000       0.0000000000E+000       2.7777777791E-003       0.0000000000E+000
       0.0000000000E+000       3.2807737251E-001       0.0000000000E+000       9.8731455334E+001       0.0000000000E+000       0.0000000000E+000       9.9999999878E-001       1.0000000000E-001       1.0000000000E+000       6.6666666667E-002       1.0000000000E-003       1.0000000000E-003       0.0000000000E+000       1.0000000003E+000       0.0000000000E+000       2.7777777791E-003       0.0000000000E+000
       0.0000000000E+000       3.5663398698E-001       0.0000000000E+000       1.0549380889E+002       0.0000000000E+000       0.0000000000E+000       9.9999999878E-001       1.0000000000E-001       1.0000000000E+000       6.6666666667E-002       1.0000000000E-003       1.0000000000E-003       0.0000000000E+000       1.0000000003E+000       0.0000000000E+000       2.7777777791E-003       0.0000000000E+000
       0.0000000000E+000       3.8696733669E-001       0.0000000000E+000       1.1235548990E+002       0.0000000000E+000       0.0000000000E+000       9.9999999878E-001       1.0000000000E-001       1.0000000000E+000       6.6666666667E-002       1.0000000000E-003       1.0000000000E-003       0.0000000000E+000       1.0000000003E+000       0.0000000000E+000       2.7777777791E-003       0.0000000000E+000
       0.0000000000E+000       4.1909627393E-001       0.0000000000E+000       1.1926222258E+002       0.0000000000E+000       0.0000000000E+000       9.9999999878E-001       1.0000000000E-001       1.0000000000E+000       6.6666666667E-002       1.0000000000E-003       1.0000000000E-003       0.0000000000E+000       1.0000000003E+000       0.0000000000E+000       2.7777777791E-003       0.0000000000E+000
       0.0000000000E+000       4.5302454235E-001       0.0000000000E+000       1.2615241704E+002       0.0000000000E+000       0.0000000000E+000       9.9999999878E-001       1.0000000000E-001       1.0000000000E+000       6.6666666667E-002       1.0000000000E-003       1.0000000000E-003       0.0000000000E+000       1.0000000003E+000       0.0000000000E+000       2.7777777791E-003       0.0000000000E+000
       0.0000000000E+000       4.8873893491E-001       0.0000000000E+000       1.3295767952E+002       0.0000000000E+000       0.0000000000E+000       9.9999999878E-001       1.0000000000E-001       1.0000000000E+000       6.6666666667E-002       1.0000000000E-003       1.0000000000E-003       0.0000000000E+000       1.0000000003E+000       0.0000000000E+000       2.7777777791E-003       0.0000000000E+000
       0.0000000000E+000       5.2620762723E-001       0.0000000000E+000       1.3960364819E+002       0.0000000000E+000       0.0000000000E+000       9.9999999878E-001       1.0000000000E-001       1.0000000000E+000       6.6666666667E-002       1.0000000000E-003       1.0000000000E-003       0.0000000000E+000       1.0000000003E+000       0.0000000000E+000       2.7777777791E-003       0.0000000000E+000
       0.0000000000E+000       5.6537877348E-001       0.0000000000E+000       1.4601117273E+002       0.0000000000E+000       0.0000000000E+000       9.9999999878E-001       1.0000000000E-001       1.0000000000E+000       6.6666666667E-002       1.0000000000E-003       1.0000000000E-003       0.0000000000E+000       1.0000000003E+000       0.0000000000E+000       2.7777777791E-003       0.0000000000E+000
       0.0000000000E+000       6.0617945461E-001       0.0000000000E+000       1.5209783756E+002       0.0000000000E+000       0.0000000000E+000       9.9999999878E-001       1.0000000000E-001       1.0000000000E+000       6.6666666667E-002       1.0000000000E-003       1.0000000000E-003       0.0000000000E+000       1.0000000003E+000       0.0000000000E+000       2.7777777791E-003       0.0000000000E+000
       0.0000000000E+000       6.4851506570E-001       0.0000000000E+000       1.5777980660E+002       0.0000000000E+000       0.0000000000E+000       9.9999999878E-001       1.0000000000E-001       1.0000000000E+000       6.6666666667E-002       1.0000000000E-003       1.0000000000E-003       0.0000000000E+000       1.0000000003E+000       0.0000000000E+000       2.7777777791E-003       0.0000000000E+000
       0.0000000000E+000       6.9226922041E-001       0.0000000000E+000       1.6297394288E+002       0.0000000000E+000       0.0000000000E+000       9.9999999878E-001       1.0000000000E-001       1.0000000000E+000       6.6666666667E-002       1.0000000000E-003       1.0000000000E-003       0.0000000000E+000       1.0000000003E+000       0.0000000000E+000       2.7777777791E-003       0.0000000000E+000
       0.0000000000E+000       7.3730423491E-001       0.0000000000E+000       1.6760013108E+002       0.0000000000E+000       0.0000000000E+000       9.9999999878E-001       1.0000000000E-001       1.0000000000E+000       6.6666666667E-002       1.0000000000E-003       1.0000000000E-003       0.0000000000E+000       1.0000000003E+000       0.0000000000E+000       2.7777777791E-003       0.0000000000E+000
       0.0000000000E+000       7.8346223196E-001       0.0000000000E+000       1.7158370747E+002       0.0000000000E+000       0.0000000000E+000       9.9999999878E-001       1.0000000000E-001       1.0000000000E+000       6.6666666667E-002       1.0000000000E-003       1.0000000000E-003       0.0000000000E+000       1.0000000003E+000       0.0000000000E+000       2.7777777791E-003       0.0000000000E+000
       0.0000000000E+000       8.3056687844E-001       0.0000000000E+000       1.7485788315E+002       0.0000000000E+000       0.0000000000E+000       9.9999999878E-001       1.0000000000E-001       1.0000000000E+000       6.6666666667E-002       1.0000000000E-003       1.0000000000E-003       0.0000000000E+000       1.0000000003E+000       0.0000000000E+000       2.7777777791E-003       0.0000000000E+000
       0.0000000000E+000       8.7842573817E-001       0.0000000000E+000       1.7736603406E+002       0.0000000000E+000       0.0000000000E+000       9.9999999878E-001       1.0000000000E-001       1.0000000000E+000       6.6666666667E-002       1.0000000000E-003       1.0000000000E-003       0.0000000000E+000       1.0000000003E+000       0.0000000000E+000       2.7777777791E-003       0.0000000000E+000
       0.0000000000E+000       9.2683318857E-001       0.0000000000E+000       1.7906372902E+002       0.0000000000E+000       0.0000000000E+000       9.9999999878E-001       1.0000000000E-001       1.0000000000E+000       6.6666666667E-002       1.0000000000E-003       1.0000000000E-003       0.0000000000E+000       1.0000000003E+000       0.0000000000E+000       2.7777777791E-003       0.0000000000E+000
       0.0000000000E+000       9.7557381694E-001       0.0000000000E+000       1.7992037466E+002       0.0000000000E+000       0.0000000000E+000       9.9999999878E-001       1.0000000000E-001       1.0000000000E+000       6.6666666667E-002       1.0000000000E-003       1.0000000000E-003       0.0000000000E+000       1.0000000003E+000       0.0000000000E+000       2.7777777791E-003       0.0000000000E+000
       0.0000000000E+000       1.0244261831E+000       0.0000000000E+000       1.7992037466E+002       0.0000000000E+000       0.0000000000E+000       9.9999999878E-001       1.0000000000E-001       1.0000000000E+000       6.6666666667E-002       1.0000000000E-003       1.0000000000E-003       0.0000000000E+000       1.0000000003E+000       0.0000000000E+000       2.7777777791E-003       0.0000000000E+000
       0.0000000000E+000       1.0731668114E+000       0.0000000000E+000       1.7906372902E+002       0.0000000000E+000       0.0000000000E+000       9.9999999878E-001       1.0000000000E-001       1.0000000000E+000       6.6666666667E-002       1.0000000000E-003       1.0000000000E-003       0.0000000000E+000       1.0000000003E+000       0.0000000000E+000       2.7777777791E-003       0.0000000000E+000
       0.0000000000E+000       1.1215742618E+000       0.0000000000E+000       1.7736603406E+002       0.0000000000E+000       0.0000000000E+000       9.9999999878E-001       1.0000000000E-001       1.0000000000E+000       6.6666666667E-002       1.0000000000E-003       1.0000000000E-003       0.0000000000E+000       1.0000000003E+000       0.0000000000E+000       2.7777777791E-003       0.0000000000E+000
       0.0000000000E+000       1.1694331216E+000       0.0000000000E+000       1.7485788315E+002       0.0000000000E+000       0.0000000000E+000       9.9999999878E-001       1.0000000000E-001       1.0000000000E+000       6.6666666667E-002       1.0000000000E-003       1.0000000000E-003       0.0000000000E+000       1.0000000003E+000       0.0000000000E+000       2.7777777791E-003       0.0000000000E+000
       0.0000000000E+000       1.2165377680E+000       0.0000000000E+000       1.7158370747E+002       0.0000000000E+000       0.0000000000E+000       9.9999999878E-001       1.0000000000E-001       1.0000000000E+000       6.6666666667E-002       1.0000000000E-003       1.0000000000E-003       0.0000000000E+000       1.0000000003E+000       0.0000000000E+000       2.7777777791E-003       0.0000000000E+000
       0.0000000000E+000       1.2626957651E+000       0.0000000000E+000       1.6760013108E+002       0.0000000000E+000       0.0000000000E+000       9.9999999878E-001       1.0000000000E-001       1.0000000000E+000       6.6666666667E-002       1.0000000000E-003       1.0000000000E-003       0.0000000000E+000       1.0000000003E+000       0.0000000000E+000       2.7777777791E-003       0.0000000000E+000
       0.0000000000E+000       1.3077307796E+000       0.0000000000E+000       1.6297394288E+002       0.0000000000E+000       0.0000000000E+000       9.9999999878E-001       1.0000000000E-001       1.0000000000E+000       6.6666666667E-002       1.0000000000E-003       1.0000000000E-003       0.0000000000E+000       1.0000000003E+000       0.0000000000E+000       2.7777777791E-003       0.0000000000E+000
       0.0000000000E+000       1.3514849343E+000       0.0000000000E+000       1.5777980660E+002       0.0000000000E+000       0.0000000000E+000       9.9999999878E-001       1.0000000000E-001       1.0000000000E+000       6.6666666667E-002       1.0000000000E-003       1.0000000000E-003       0.0000000000E+000       1.0000000003E+000       0.0000000000E+000       2.7777777791E-003       0.0000000000E+000
       0.0000000000E+000       1.3938205454E+000       0.0000000000E+000       1.5209783756E+002       0.0000000000E+000       0.0000000000E+000       9.9999999878E-001       1.0000000000E-001       1.0000000000E+000       6.6666666667E-002       1.0000000000E-003       1.0000000000E-003       0.0000000000E+000       1.0000000003E+000       0.0000000000E+000       2.7777777791E-003       0.0000000000E+000
       0.0000000000E+000       1.4346212265E+000       0.0000000000E+000       1.4601117273E+002       0.0000000000E+000       0.0000000000E+000       9.9999999878E-001       1.0000000000E-001       1.0000000000E+000       6.6666666667E-002       1.0000000000E-003       1.0000000000E-003       0.0000000000E+000       1.0000000003E+000       0.0000000000E+000       2.7777777791E-003       0.0000000000E+000
       0.0000000000E+000       1.4737923728E+000       0.0000000000E+000       1.3960364819E+002       0.0000000000E+000       0.0000000000E+000       9.9999999878E-001       1.0000000000E-001       1.0000000000E+000       6.6666666667E-002       1.0000000000E-003       1.0000000000E-003       0.0000000000E+000       1.0000000003E+000       0.0000000000E+000       2.7777777791E-003       0.0000000000E+000
       0.0000000000E+000       1.5112610651E+000       0.0000000000E+000       1.3295767952E+002       0.0000000000E+000       0.0000000000E+000       9.9999999878E-001       1.0000000000E-001       1.0000000000E+000       6.6666666667E-002       1.0000000000E-003       1.0000000000E-003       0.0000000000E+000       1.0000000003E+000       0.0000000000E+000       2.7777777791E-003       0.0000000000E+000
       0.0000000000E+000       1.5469754577E+000       0.0000000000E+000       1.2615241704E+002       0.0000000000E+000       0.0000000000E+000       9.9999999878E-001       1.0000000000E-001       1.0000000000E+000       6.6666666667E-002       1.0000000000E-003       1.0000000000E-003       0.0000000000E+000       1.0000000003E+000       0.0000000000E+000       2.7777777791E-003       0.0000000000E+000
       0.0000000000E+000       1.5809037261E+000       0.0000000000E+000       1.1926222258E+002       0.0000000000E+000       0.0000000000E+000       9.9999999878E-001       1.0000000000E-001       1.0000000000E+000       6.6666666667E-002       1.0000000000E-003       1.0000000000E-003       0.0000000000E+000       1.0000000003E+000       0.0000000000E+000       2.7777777791E-003       0.0000000000E+000
       0.0000000000E+000       1.6130326633E+000       0.0000000000E+000       1.1235548990E+002       0.0000000000E+000       0.0000000000E+000       9.9999999878E-001       1.0000000000E-001       1.0000000000E+000       6.6666666667E-002       1.0000000000E-003       1.0000000000E-003       0.0000000000E+000       1.0000000003E+000       0.0000000000E+000       2.7777777791E-003       0.0000000000E+000
       0.0000000000E+000       1.6433660130E+000       0.0000000000E+000       1.0549380889E+002       0.0000000000E+000       0.0000000000E+000       9.9999999878E-001       1.0000000000E-001       1.0000000000E+000       6.6666666667E-002       1.0000000000E-003       1.0000000000E-003       0.0000000000E+000       1.0000000003E+000       0.0000000000E+000       2.7777777791E-003       0.0000000000E+000
       0.0000000000E+000       1.6719226275E+000       0.0000000000E+000       9.8731455334E+001       0.0000000000E+000       0.0000000000E+000       9.9999999878E-001       1.0000000000E-001       1.0000000000E+000       6.6666666667E-002       1.0000000000E-003       1.0000000000E-003       0.0000000000E+000       1.0000000003E+000       0.0000000000E+000       2.7777777791E-003       0.0000000000E+000
       0.0000000000E+000       1.6987345312E+000       0.0000000000E+000       9.2115174640E+001       0.0000000000E+000       0.0000000000E+000       9.9999999878E-001       1.0000000000E-001       1.0000000000E+000       6.6666666667E-002       1.0000000000E-003       1.0000000000E-003       0.0000000000E+000       1.0000000003E+000       0.0000000000E+000       2.7777777791E-003       0.0000000000E+000
       0.0000000000E+000       1.7238449611E+000       0.0000000000E+000       8.5684218780E+001       0.0000000000E+000       0.0000000000E+000       9.9999999878E-001       1.0000000000E-001       1.0000000000E+000       6.6666666667E-002       1.0000000000E-003       1.0000000000E-003       0.0000000000E+000       1.0000000003E+000       0.0000000000E+000       2.7777777791E-003       0.0000000000E+000
       0.0000000000E+000       1.7473064441E+000       0.0000000000E+000       7.9470591016E+001       0.0000000000E+000       0.0000000000E+000       9.9999999878E-001       1.0000000000E-001       1.0000000000E+000       6.6666666667E-002       1.0000000000E-003       1.0000000000E-003       0.0000000000E+000       1.0000000003E+000       0.0000000000E+000       2.7777777791E-003       0.0000000000E+000
       0.0000000000E+000       1.7691789590E+000       0.0000000000E+000       7.3499452097E+001       0.0000000000E+000       0.0000000000E+000       9.9999999878E-001       1.0000000000E-001       1.0000000000E+000       6.6666666667E-002       1.0000000000E-003       1.0000000000E-003       0.0000000000E+000       1.0000000003E+000       0.0000000000E+000       2.7777777791E-003       0.0000000000E+000
       0.0000000000E+000       1.7895282204E+000       0.0000000000E+000       6.7789643444E+001       0.0000000000E+000       0.0000000000E+000       9.9999999878E-001       1.0000000000E-001       1.0000000000E+000       6.6666666667E-002       1.0000000000E-003       1.0000000000E-003       0.0000000000E+000       1.0000000003E+000       0.0000000000E+000       2.7777777791E-003       0.0000000000E+000
       0.0000000000E+000       1.8084241087E+000       0.0000000000E+000       6.2354286828E+001       0.0000000000E+000       0.0000000000E+000       9.9999999878E-001       1.0000000000E-001       1.0000000000E+000       6.6666666667E-002       1.0000000000E-003       1.0000000000E-003       0.0000000000E+000       1.0000000003E+000       0.0000000000E+000       2.7777777791E-003       0.0000000000E+000