 VARIABLES ="X","Y","U","W","P","C","T","k","eps", "v2","omega","nuSA","yplus","RHO","Pe","mu","mut"
 ZONE I=            26  J=            50  F=POINT 
       0.0000000000E+000      -1.8873724212E-002       0.0000000000E+000       1.0000000000E+000       1.4454484778E+000       0.0000000000E+000       9.9999999878E-001       0.0000000000E+000       0.0000000000E+000       0.0000000000E+000       0.0000000000E+000       0.0000000000E+000       0.0000000000E+000       1.0000000000E+000       0.0000000000E+000       2.7777777791E-003       0.0000000000E+000
       0.0000000000E+000       1.8873724212E-002       0.0000000000E+000       1.0000000000E+000       1.4454484778E+000       0.0000000000E+000       9.9999999878E-001       0.0000000000E+000       0.0000000000E+000       0.0000000000E+000       0.0000000000E+000       0.0000000000E+000       0.0000000000E+000       1.0000000000E+000       0.0000000000E+000       2.7777777791E-003       0.0000000000E+000
       0.0000000000E+000       5.7333443020E-002       0.0000000000E+000       1.0000000000E+000       1.4459409397E+000       0.0000000000E+000       9.9999999878E-001       0.0000000000E+000       0.0000000000E+000       0.0000000000E+000       0.0000000000E+000       0.0000000000E+000       0.0000000000E+000       1.0000000000E+000       0.0000000000E+000       2.7777777791E-003       0.0000000000E+000
       0.0000000000E+000       9.6851141461E-002       0.0000000000E+000       1.0000000000E+000       1.4464697586E+000       0.0000000000E+000       9.9999999878E-001       0.0000000000E+000       0.0000000000E+000       0.0000000000E+000       0.0000000000E+000       0.0000000000E+000       0.0000000000E+000       1.0000000000E+000       0.0000000000E+000       2.7777777791E-003       0.0000000000E+000
       0.0000000000E+000       1.3666693112E-001       0.0000000000E+000       1.0000000000E+000       1.4470472923E+000       0.0000000000E+000       9.9999999878E-001       0.0000000000E+000       0.0000000000E+000       0.0000000000E+000       0.0000000000E+000       0.0000000000E+000       0.0000000000E+000       1.0000000000E+000       0.0000000000E+000       2.7777777791E-003       0.0000000000E+000
       0.0000000000E+000       1.7599788518E-001       0.0000000000E+000       1.0000000000E+000       1.4476956411E+000       0.0000000000E+000       9.9999999878E-001       0.0000000000E+000       0.0000000000E+000       0.0000000000E+000       0.0000000000E+000       0.0000000000E+000       0.0000000000E+000       1.0000000000E+000       0.0000000000E+000       2.7777777791E-003       0.0000000000E+000
       0.0000000000E+000       2.1409841984E-001       0.0000000000E+000       1.0000000000E+000       1.4484107455E+000       0.0000000000E+000       9.9999999878E-001       0.0000000000E+000       0.0000000000E+000       0.0000000000E+000       0.0000000000E+000       0.0000000000E+000       0.0000000000E+000       1.0000000000E+000       0.0000000000E+000       2.7777777791E-003       0.0000000000E+000
       0.0000000000E+000       2.5031472918E-001       0.0000000000E+000       1.0000000000E+000       1.4491729949E+000       0.0000000000E+000       9.9999999878E-001       0.0000000000E+000       0.0000000000E+000       0.0000000000E+000       0.0000000000E+000       0.0000000000E+000       0.0000000000E+000       1.0000000000E+000       0.0000000000E+000       2.7777777791E-003       0.0000000000E+000
       0.0000000000E+000       2.8412521274E-001       0.0000000000E+000       1.0000000000E+000       1.4499569917E+000       0.0000000000E+000       9.9999999878E-001       0.0000000000E+000       0.0000000000E+000       0.0000000000E+000       0.0000000000E+000       0.0000000000E+000       0.0000000000E+000       1.0000000000E+000       0.0000000000E+000       2.7777777791E-003       0.0000000000E+000
       0.0000000000E+000       3.1516234544E-001       0.0000000000E+000       1.0000000000E+000       1.4507394858E+000       0.0000000000E+000       9.9999999878E-001       0.0000000000E+000       0.0000000000E+000       0.0000000000E+000       0.0000000000E+000       0.0000000000E+000       0.0000000000E+000       1.0000000000E+000       0.0000000000E+000       2.7777777791E-003       0.0000000000E+000
       0.0000000000E+000       3.4321561122E-001       0.0000000000E+000       1.0000000000E+000       1.4515054585E+000       0.0000000000E+000       9.9999999878E-001       0.0000000000E+000       0.0000000000E+000       0.0000000000E+000       0.0000000000E+000       0.0000000000E+000       0.0000000000E+000       1.0000000000E+000       0.0000000000E+000       2.7777777791E-003       0.0000000000E+000
       0.0000000000E+000       3.6821862997E-001       0.0000000000E+000       1.0000000000E+000       1.4522509061E+000       0.0000000000E+000       9.9999999878E-001       0.0000000000E+000       0.0000000000E+000       0.0000000000E+000       0.0000000000E+000       0.0000000000E+000       0.0000000000E+000       1.0000000000E+000       0.0000000000E+000       2.7777777791E-003       0.0000000000E+000
       0.0000000000E+000       3.9022562849E-001       0.0000000000E+000       1.0000000000E+000       1.4529804599E+000       0.0000000000E+000       9.9999999878E-001       0.0000000000E+000       0.0000000000E+000       0.0000000000E+000       0.0000000000E+000       0.0000000000E+000       0.0000000000E+000       1.0000000000E+000       0.0000000000E+000       2.7777777791E-003       0.0000000000E+000
       0.0000000000E+000       4.0938280595E-001       0.0000000000E+000       1.0000000000E+000       1.4536997080E+000       0.0000000000E+000       9.9999999878E-001       0.0000000000E+000       0.0000000000E+000       0.0000000000E+000       0.0000000000E+000       0.0000000000E+000       0.0000000000E+000       1.0000000000E+000       0.0000000000E+000       2.7777777791E-003       0.0000000000E+000
       0.0000000000E+000       4.2589932138E-001       0.0000000000E+000       1.0000000000E+000       1.4544057613E+000       0.0000000000E+000       9.9999999878E-001       0.0000000000E+000       0.0000000000E+000       0.0000000000E+000       0.0000000000E+000       0.0000000000E+000       0.0000000000E+000       1.0000000000E+000       0.0000000000E+000       2.7777777791E-003       0.0000000000E+000
       0.0000000000E+000       4.4002119401E-001       0.0000000000E+000       1.0000000000E+000       1.4550821491E+000       0.0000000000E+000       9.9999999878E-001       0.0000000000E+000       0.0000000000E+000       0.0000000000E+000       0.0000000000E+000       0.0000000000E+000       0.0000000000E+000       1.0000000000E+000       0.0000000000E+000       2.7777777791E-003       0.0000000000E+000
       0.0000000000E+000       4.5200990049E-001       0.0000000000E+000       1.0000000000E+000       1.4557020462E+000       0.0000000000E+000       9.9999999878E-001       0.0000000000E+000       0.0000000000E+000       0.0000000000E+000       0.0000000000E+000       0.0000000000E+000       0.0000000000E+000       1.0000000000E+000       0.0000000000E+000       2.7777777791E-003       0.0000000000E+000
       0.0000000000E+000       4.6212621624E-001       0.0000000000E+000       1.0000000000E+000       1.4562379628E+000       0.0000000000E+000       9.9999999878E-001       0.0000000000E+000       0.0000000000E+000       0.0000000000E+000       0.0000000000E+000       0.0000000000E+000       0.0000000000E+000       1.0000000000E+000       0.0000000000E+000       2.7777777791E-003       0.0000000000E+000
       0.0000000000E+000       4.7061901023E-001       0.0000000000E+000       1.0000000000E+000       1.4566716945E+000       0.0000000000E+000       9.9999999878E-001       0.0000000000E+000       0.0000000000E+000       0.0000000000E+000       0.0000000000E+000       0.0000000000E+000       0.0000000000E+000       1.0000000000E+000       0.0000000000E+000       2.7777777791E-003       0.0000000000E+000
       0.0000000000E+000       4.7771824678E-001       0.0000000000E+000       1.0000000000E+000       1.4569991945E+000       0.0000000000E+000       9.9999999878E-001       0.0000000000E+000       0.0000000000E+000       0.0000000000E+000       0.0000000000E+000       0.0000000000E+000       0.0000000000E+000       1.0000000000E+000       0.0000000000E+000       2.7777777791E-003       0.0000000000E+000
       0.0000000000E+000       4.8363128336E-001       0.0000000000E+000       1.0000000000E+000       1.4572293178E+000       0.0000000000E+000       9.9999999878E-001       0.0000000000E+000       0.0000000000E+000       0.0000000000E+000       0.0000000000E+000       0.0000000000E+000       0.0000000000E+000       1.0000000000E+000       0.0000000000E+000       2.7777777791E-003       0.0000000000E+000
       0.0000000000E+000       4.8854157621E-001       0.0000000000E+000       1.0000000000E+000       1.4573789037E+000       0.0000000000E+000       9.9999999878E-001       0.0000000000E+000       0.0000000000E+000       0.0000000000E+000       0.0000000000E+000       0.0000000000E+000       0.0000000000E+000       1.0000000000E+000       0.0000000000E+000       2.7777777791E-003       0.0000000000E+000
       0.0000000000E+000       4.9260902662E-001       0.0000000000E+000       1.0000000000E+000       1.4574673776E+000       0.0000000000E+000       9.9999999878E-001       0.0000000000E+000       0.0000000000E+000       0.0000000000E+000       0.0000000000E+000       0.0000000000E+000       0.0000000000E+000       1.0000000000E+000       0.0000000000E+000       2.7777777791E-003       0.0000000000E+000
       0.0000000000E+000       4.9597135731E-001       0.0000000000E+000       1.0000000000E+000       1.4575128340E+000       0.0000000000E+000       9.9999999878E-001       0.0000000000E+000       0.0000000000E+000       0.0000000000E+000       0.0000000000E+000       0.0000000000E+000       0.0000000000E+000       1.0000000000E+000       0.0000000000E+000       2.7777777791E-003       0.0000000000E+000
       0.0000000000E+000       4.9874606344E-001       0.0000000000E+000       1.0000000000E+000       1.4575300572E+000       0.0000000000E+000       9.9999999878E-001       0.0000000000E+000       0.0000000000E+000       0.0000000000E+000       0.0000000000E+000       0.0000000000E+000       0.0000000000E+000       1.0000000000E+000       0.0000000000E+000       2.7777777791E-003       0.0000000000E+000
       0.0000000000E+000       5.0125393656E-001       0.0000000000E+000       1.0000000000E+000       1.4575300572E+000       0.0000000000E+000       9.9999999878E-001       0.0000000000E+000       0.0000000000E+000       0.0000000000E+000       0.0000000000E+000       0.0000000000E+000       0.0000000000E+000       1.0000000000E+000       0.0000000000E+000       2.7777777791E-003       0.0000000000E+000
       4.1666666667E-001      -1.8873724212E-002      -7.2588520962E-003       1.1602503918E+000       1.4454484778E+000       0.0000000000E+000       9.9999999878E-001       1.0000000000E-001       1.0000000000E+000       6.6666666667E-002       1.0000000000E-003       1.0000000000E-003       0.0000000000E+000       1.0000000003E+000       0.0000000000E+000       2.7777777791E-003       0.0000000000E+000
       4.1666666667E-001       1.8873724212E-002      -7.2588520962E-003       1.1602503918E+000       1.4454484778E+000       0.0000000000E+000       9.9999999878E-001       1.0000000000E-001       1.0000000000E+000       6.6666666667E-002       1.0000000000E-003       1.0000000000E-003       0.0000000000E+000       1.0000000003E+000       1.7403755875E+002       2.7777777791E-003       0.0000000000E+000
       4.1666666667E-001       5.7333443020E-002      -1.1033872503E-002       1.1604965428E+000       1.4459409397E+000       0.0000000000E+000       9.9999999878E-001       1.0000000000E-001       1.0000000000E+000       6.6666666667E-002       1.0000000000E-003       1.0000000000E-003       0.0000000000E+000       1.0000000003E+000       1.7407448140E+002       2.7777777791E-003       0.0000000000E+000
       4.1666666667E-001       9.6851141461E-002      -1.8662114992E-002       1.1608374587E+000       1.4464697586E+000       0.0000000000E+000       9.9999999878E-001       1.0000000000E-001       1.0000000000E+000       6.6666666667E-002       1.0000000000E-003       1.0000000000E-003       0.0000000000E+000       1.0000000003E+000       1.7412561879E+002       2.7777777791E-003       0.0000000000E+000
       4.1666666667E-001       1.3666693112E-001      -2.6371952087E-002       1.1612166606E+000       1.4470472923E+000       0.0000000000E+000       9.9999999878E-001       1.0000000000E-001       1.0000000000E+000       6.6666666667E-002       1.0000000000E-003       1.0000000000E-003       0.0000000000E+000       1.0000000003E+000       1.7418249907E+002       2.7777777791E-003       0.0000000000E+000
       4.1666666667E-001       1.7599788518E-001      -3.4007740658E-002       1.1614839138E+000       1.4476956411E+000       0.0000000000E+000       9.9999999878E-001       1.0000000000E-001       1.0000000000E+000       6.6666666667E-002       1.0000000000E-003       1.0000000000E-003       0.0000000000E+000       1.0000000003E+000       1.7422258705E+002       2.7777777791E-003       0.0000000000E+000
       4.1666666667E-001       2.1409841984E-001      -4.1402311300E-002       1.1613319901E+000       1.4484107455E+000       0.0000000000E+000       9.9999999878E-001       1.0000000000E-001       1.0000000000E+000       6.6666666667E-002       1.0000000000E-003       1.0000000000E-003       0.0000000000E+000       1.0000000003E+000       1.7419979849E+002       2.7777777791E-003       0.0000000000E+000
       4.1666666667E-001       2.5031472918E-001      -4.8376299464E-002       1.1602070178E+000       1.4491729949E+000       0.0000000000E+000       9.9999999878E-001       1.0000000000E-001       1.0000000000E+000       6.6666666667E-002       1.0000000000E-003       1.0000000000E-003       0.0000000000E+000       1.0000000003E+000       1.7403105265E+002       2.7777777791E-003       0.0000000000E+000
       4.1666666667E-001       2.8412521274E-001      -5.4734577219E-002       1.1571929525E+000       1.4499569917E+000       0.0000000000E+000       9.9999999878E-001       1.0000000000E-001       1.0000000000E+000       6.6666666667E-002       1.0000000000E-003       1.0000000000E-003       0.0000000000E+000       1.0000000003E+000       1.7357894286E+002       2.7777777791E-003       0.0000000000E+000
       4.1666666667E-001       3.1516234544E-001      -6.0262287382E-002       1.1508943221E+000       1.4507394858E+000       0.0000000000E+000       9.9999999878E-001       1.0000000000E-001       1.0000000000E+000       6.6666666667E-002       1.0000000000E-003       1.0000000000E-003       0.0000000000E+000       1.0000000003E+000       1.7263414829E+002       2.7777777791E-003       0.0000000000E+000
       4.1666666667E-001       3.4321561122E-001      -6.4725397473E-002       1.1393648540E+000       1.4515054585E+000       0.0000000000E+000       9.9999999878E-001       1.0000000000E-001       1.0000000000E+000       6.6666666667E-002       1.0000000000E-003       1.0000000000E-003       0.0000000000E+000       1.0000000003E+000       1.7090472809E+002       2.7777777791E-003       0.0000000000E+000
       4.1666666667E-001       3.6821862997E-001      -6.7881349803E-002       1.1201462896E+000       1.4522509061E+000       0.0000000000E+000       9.9999999878E-001       1.0000000000E-001       1.0000000000E+000       6.6666666667E-002       1.0000000000E-003       1.0000000000E-003       0.0000000000E+000       1.0000000003E+000       1.6802194341E+002       2.7777777791E-003       0.0000000000E+000
       4.1666666667E-001       3.9022562849E-001      -6.9503141001E-002       1.0904818444E+000       1.4529804599E+000       0.0000000000E+000       9.9999999878E-001       1.0000000000E-001       1.0000000000E+000       6.6666666667E-002       1.0000000000E-003       1.0000000000E-003       0.0000000000E+000       1.0000000003E+000       1.6357227665E+002       2.7777777791E-003       0.0000000000E+000
       4.1666666667E-001       4.0938280595E-001      -6.9415381181E-002       1.0477441805E+000       1.4536997080E+000       0.0000000000E+000       9.9999999878E-001       1.0000000000E-001       1.0000000000E+000       6.6666666667E-002       1.0000000000E-003       1.0000000000E-003       0.0000000000E+000       1.0000000003E+000       1.5716162705E+002       2.7777777791E-003       0.0000000000E+000
       4.1666666667E-001       4.2589932138E-001      -6.7535197440E-002       9.9005584480E-001       1.4544057613E+000       0.0000000000E+000       9.9999999878E-001       1.0000000000E-001       1.0000000000E+000       6.6666666667E-002       1.0000000000E-003       1.0000000000E-003       0.0000000000E+000       1.0000000003E+000       1.4850837670E+002       2.7777777791E-003       0.0000000000E+000
       4.1666666667E-001       4.4002119401E-001      -6.3906271716E-002       9.1696989442E-001       1.4550821491E+000       0.0000000000E+000       9.9999999878E-001       1.0000000000E-001       1.0000000000E+000       6.6666666667E-002       1.0000000000E-003       1.0000000000E-003       0.0000000000E+000       1.0000000003E+000       1.3754548415E+002       2.7777777791E-003       0.0000000000E+000
       4.1666666667E-001       4.5200990049E-001      -5.8712979336E-002       8.2995352047E-001       1.4557020462E+000       0.0000000000E+000       9.9999999878E-001       1.0000000000E-001       1.0000000000E+000       6.6666666667E-002       1.0000000000E-003       1.0000000000E-003       0.0000000000E+000       1.0000000003E+000       1.2449302806E+002       2.7777777791E-003       0.0000000000E+000
       4.1666666667E-001       4.6212621624E-001      -5.2265711152E-002       7.3239230295E-001       1.4562379628E+000       0.0000000000E+000       9.9999999878E-001       1.0000000000E-001       1.0000000000E+000       6.6666666667E-002       1.0000000000E-003       1.0000000000E-003       0.0000000000E+000       1.0000000003E+000       1.0985884543E+002       2.7777777791E-003       0.0000000000E+000
       4.1666666667E-001       4.7061901023E-001      -4.4958284059E-002       6.2901297572E-001       1.4566716945E+000       0.0000000000E+000       9.9999999878E-001       1.0000000000E-001       1.0000000000E+000       6.6666666667E-002       1.0000000000E-003       1.0000000000E-003       0.0000000000E+000       1.0000000003E+000       9.4351946346E+001       2.7777777791E-003       0.0000000000E+000
       4.1666666667E-001       4.7771824678E-001      -3.7209587459E-002       5.2492876748E-001       1.4569991945E+000       0.0000000000E+000       9.9999999878E-001       1.0000000000E-001       1.0000000000E+000       6.6666666667E-002       1.0000000000E-003       1.0000000000E-003       0.0000000000E+000       1.0000000003E+000       7.8739315113E+001       2.7777777791E-003       0.0000000000E+000
       4.1666666667E-001       4.8363128336E-001      -2.9407272291E-002       4.2469886107E-001       1.4572293178E+000       0.0000000000E+000       9.9999999878E-001       1.0000000000E-001       1.0000000000E+000       6.6666666667E-002       1.0000000000E-003       1.0000000000E-003       0.0000000000E+000       1.0000000003E+000       6.3704829153E+001       2.7777777791E-003       0.0000000000E+000
       4.1666666667E-001       4.8854157621E-001      -2.1867959903E-002       3.3172118403E-001       1.4573789037E+000       0.0000000000E+000       9.9999999878E-001       1.0000000000E-001       1.0000000000E+000       6.6666666667E-002       1.0000000000E-003       1.0000000000E-003       0.0000000000E+000       1.0000000003E+000       4.9758177599E+001       2.7777777791E-003       0.0000000000E+000
       4.1666666667E-001       4.9260902662E-001      -1.4819460275E-002       2.4804988959E-001       1.4574673776E+000       0.0000000000E+000       9.9999999878E-001       1.0000000000E-001       1.0000000000E+000       6.6666666667E-002       1.0000000000E-003       1.0000000000E-003       0.0000000000E+000       1.0000000003E+000       3.7207483433E+001       2.7777777791E-003       0.0000000000E+000
       4.1666666667E-001       4.9597135731E-001      -8.4020549374E-003       1.7453723908E-001       1.4575128340E+000       0.0000000000E+000       9.9999999878E-001       1.0000000000E-001       1.0000000000E+000       6.6666666667E-002       1.0000000000E-003       1.0000000000E-003       0.0000000000E+000       1.0000000003E+000       2.6180585859E+001       2.7777777791E-003       0.0000000000E+000
       4.1666666667E-001       4.9874606344E-001      -2.6817397107E-003       1.1113348037E-001       1.4575300572E+000       0.0000000000E+000       9.9999999878E-001       1.0000000000E-001       1.0000000000E+000       6.6666666667E-002       1.0000000000E-003       1.0000000000E-003       0.0000000000E+000       1.0000000003E+000       1.6670022053E+001       2.7777777791E-003       0.0000000000E+000
       4.1666666667E-001       5.0125393656E-001       2.6817397107E-003      -1.1113348037E-001       1.4575300572E+000       0.0000000000E+000       9.9999999878E-001       0.0000000000E+000       0.0000000000E+000       0.0000000000E+000       0.0000000000E+000       0.0000000000E+000       0.0000000000E+000       1.0000000003E+000       0.0000000000E+000       2.7777777791E-003      -0.0000000000E+000
       8.3333333333E-001      -1.8873724212E-002      -4.1755608894E-003       1.2524323596E+000       1.2196596877E+000       0.0000000000E+000       9.9999999878E-001       1.0000000000E-001       1.0000000000E+000       6.6666666667E-002       1.0000000000E-003       1.0000000000E-003       0.0000000000E+000       1.0000000003E+000       0.0000000000E+000       2.7777777791E-003       0.0000000000E+000
       8.3333333333E-001       1.8873724212E-002      -4.1755608894E-003       1.2524323596E+000       1.2196596877E+000       0.0000000000E+000       9.9999999878E-001       1.0000000000E-001       1.0000000000E+000       6.6666666667E-002       1.0000000000E-003       1.0000000000E-003       0.0000000000E+000       1.0000000003E+000       1.8786485392E+002       2.7777777791E-003       0.0000000000E+000
       8.3333333333E-001       5.7333443020E-002      -6.3347583562E-003       1.2524680722E+000       1.2195163988E+000       0.0000000000E+000       9.9999999878E-001       1.0000000000E-001       1.0000000000E+000       6.6666666667E-002       1.0000000000E-003       1.0000000000E-003       0.0000000000E+000       1.0000000003E+000       1.8787021081E+002       2.7777777791E-003       0.0000000000E+000
       8.3333333333E-001       9.6851141461E-002      -1.0676901000E-002       1.2524047815E+000       1.2190974133E+000       0.0000000000E+000       9.9999999878E-001       1.0000000000E-001       1.0000000000E+000       6.6666666667E-002       1.0000000000E-003       1.0000000000E-003       0.0000000000E+000       1.0000000003E+000       1.8786071720E+002       2.7777777791E-003       0.0000000000E+000
       8.3333333333E-001       1.3666693112E-001      -1.5010052767E-002       1.2520360366E+000       1.2183633985E+000       0.0000000000E+000       9.9999999878E-001       1.0000000000E-001       1.0000000000E+000       6.6666666667E-002       1.0000000000E-003       1.0000000000E-003       0.0000000000E+000       1.0000000003E+000       1.8780540547E+002       2.7777777791E-003       0.0000000000E+000
       8.3333333333E-001       1.7599788518E-001      -1.9213479647E-002       1.2509630118E+000       1.2173387230E+000       0.0000000000E+000       9.9999999878E-001       1.0000000000E-001       1.0000000000E+000       6.6666666667E-002       1.0000000000E-003       1.0000000000E-003       0.0000000000E+000       1.0000000003E+000       1.8764445175E+002       2.7777777791E-003       0.0000000000E+000
       8.3333333333E-001       2.1409841984E-001      -2.3149244341E-002       1.2484341528E+000       1.2160651778E+000       0.0000000000E+000       9.9999999878E-001       1.0000000000E-001       1.0000000000E+000       6.6666666667E-002       1.0000000000E-003       1.0000000000E-003       0.0000000000E+000       1.0000000003E+000       1.8726512290E+002       2.7777777791E-003       0.0000000000E+000
       8.3333333333E-001       2.5031472918E-001      -2.6657473156E-002       1.2431489888E+000       1.2145982457E+000       0.0000000000E+000       9.9999999878E-001       1.0000000000E-001       1.0000000000E+000       6.6666666667E-002       1.0000000000E-003       1.0000000000E-003       0.0000000000E+000       1.0000000003E+000       1.8647234829E+002       2.7777777791E-003       0.0000000000E+000
       8.3333333333E-001       2.8412521274E-001      -2.9551746850E-002       1.2330625350E+000       1.2130041822E+000       0.0000000000E+000       9.9999999878E-001       1.0000000000E-001       1.0000000000E+000       6.6666666667E-002       1.0000000000E-003       1.0000000000E-003       0.0000000000E+000       1.0000000003E+000       1.8495938022E+002       2.7777777791E-003       0.0000000000E+000
       8.3333333333E-001       3.1516234544E-001      -3.1622287382E-002       1.2152950012E+000       1.2113562822E+000       0.0000000000E+000       9.9999999878E-001       1.0000000000E-001       1.0000000000E+000       6.6666666667E-002       1.0000000000E-003       1.0000000000E-003       0.0000000000E+000       1.0000000003E+000       1.8229425016E+002       2.7777777791E-003       0.0000000000E+000
       8.3333333333E-001       3.4321561122E-001      -3.2656318274E-002       1.1863003151E+000       1.2097307498E+000       0.0000000000E+000       9.9999999878E-001       1.0000000000E-001       1.0000000000E+000       6.6666666667E-002       1.0000000000E-003       1.0000000000E-003       0.0000000000E+000       1.0000000003E+000       1.7794504724E+002       2.7777777791E-003       0.0000000000E+000
       8.3333333333E-001       3.6821862997E-001      -3.2480732446E-002       1.1424309324E+000       1.2082013631E+000       0.0000000000E+000       9.9999999878E-001       1.0000000000E-001       1.0000000000E+000       6.6666666667E-002       1.0000000000E-003       1.0000000000E-003       0.0000000000E+000       1.0000000003E+000       1.7136463984E+002       2.7777777791E-003       0.0000000000E+000
       8.3333333333E-001       3.9022562849E-001      -3.1020907742E-002       1.0809087609E+000       1.2068319887E+000       0.0000000000E+000       9.9999999878E-001       1.0000000000E-001       1.0000000000E+000       6.6666666667E-002       1.0000000000E-003       1.0000000000E-003       0.0000000000E+000       1.0000000003E+000       1.6213631412E+002       2.7777777791E-003       0.0000000000E+000
       8.3333333333E-001       4.0938280595E-001      -2.8355095803E-002       1.0009666596E+000       1.2056679442E+000       0.0000000000E+000       9.9999999878E-001       1.0000000000E-001       1.0000000000E+000       6.6666666667E-002       1.0000000000E-003       1.0000000000E-003       0.0000000000E+000       1.0000000003E+000       1.5014499892E+002       2.7777777791E-003       0.0000000000E+000
       8.3333333333E-001       4.2589932138E-001      -2.4735239090E-002       9.0465917372E-001       1.2047296481E+000       0.0000000000E+000       9.9999999878E-001       1.0000000000E-001       1.0000000000E+000       6.6666666667E-002       1.0000000000E-003       1.0000000000E-003       0.0000000000E+000       1.0000000003E+000       1.3569887604E+002       2.7777777791E-003       0.0000000000E+000
       8.3333333333E-001       4.4002119401E-001      -2.0552543871E-002       7.9679651726E-001       1.2040120146E+000       0.0000000000E+000       9.9999999878E-001       1.0000000000E-001       1.0000000000E+000       6.6666666667E-002       1.0000000000E-003       1.0000000000E-003       0.0000000000E+000       1.0000000003E+000       1.1951947757E+002       2.7777777791E-003       0.0000000000E+000
       8.3333333333E-001       4.5200990049E-001      -1.6252008354E-002       6.8385025705E-001       1.2034900317E+000       0.0000000000E+000       9.9999999878E-001       1.0000000000E-001       1.0000000000E+000       6.6666666667E-002       1.0000000000E-003       1.0000000000E-003       0.0000000000E+000       1.0000000003E+000       1.0257753854E+002       2.7777777791E-003       0.0000000000E+000
       8.3333333333E-001       4.6212621624E-001      -1.2229958569E-002       5.7232377568E-001       1.2031277233E+000       0.0000000000E+000       9.9999999878E-001       1.0000000000E-001       1.0000000000E+000       6.6666666667E-002       1.0000000000E-003       1.0000000000E-003       0.0000000000E+000       1.0000000003E+000       8.5848566342E+001       2.7777777791E-003       0.0000000000E+000
       8.3333333333E-001       4.7061901023E-001      -8.7585408714E-003       4.6739114754E-001       1.2028868530E+000       0.0000000000E+000       9.9999999878E-001       1.0000000000E-001       1.0000000000E+000       6.6666666667E-002       1.0000000000E-003       1.0000000000E-003       0.0000000000E+000       1.0000000003E+000       7.0108672123E+001       2.7777777791E-003       0.0000000000E+000
       8.3333333333E-001       4.7771824678E-001      -5.9621612691E-003       3.7230064900E-001       1.2027330287E+000       0.0000000000E+000       9.9999999878E-001       1.0000000000E-001       1.0000000000E+000       6.6666666667E-002       1.0000000000E-003       1.0000000000E-003       0.0000000000E+000       1.0000000003E+000       5.5845097343E+001       2.7777777791E-003       0.0000000000E+000