 VARIABLES ="X","Y","U","W","P","C","T","k","eps", "v2","omega","nuSA","yplus","RHO","Pe","mu","mut"
 ZONE I=            26  J=            50  F=POINT 
       0.0000000000E+000      -1.8873724212E-002       0.0000000000E+000       1.0000000000E+000       9.1488879154E-001       0.0000000000E+000       9.9999999878E-001       0.0000000000E+000       0.0000000000E+000       0.0000000000E+000       0.0000000000E+000       0.0000000000E+000       0.0000000000E+000       1.0000000000E+000       0.0000000000E+000       2.7777777791E-003       0.0000000000E+000
       0.0000000000E+000       1.8873724212E-002       0.0000000000E+000       1.0000000000E+000       9.1488879154E-001       0.0000000000E+000       9.9999999878E-001       0.0000000000E+000       0.0000000000E+000       0.0000000000E+000       0.0000000000E+000       0.0000000000E+000       0.0000000000E+000       1.0000000000E+000       0.0000000000E+000       2.7777777791E-003       0.0000000000E+000
       0.0000000000E+000       5.7333443020E-002       0.0000000000E+000       1.0000000000E+000       9.1596267958E-001       0.0000000000E+000       9.9999999878E-001       0.0000000000E+000       0.0000000000E+000       0.0000000000E+000       0.0000000000E+000       0.0000000000E+000       0.0000000000E+000       1.0000000000E+000       0.0000000000E+000       2.7777777791E-003       0.0000000000E+000
       0.0000000000E+000       9.6851141461E-002       0.0000000000E+000       1.0000000000E+000       9.1746014429E-001       0.0000000000E+000       9.9999999878E-001       0.0000000000E+000       0.0000000000E+000       0.0000000000E+000       0.0000000000E+000       0.0000000000E+000       0.0000000000E+000       1.0000000000E+000       0.0000000000E+000       2.7777777791E-003       0.0000000000E+000
       0.0000000000E+000       1.3666693112E-001       0.0000000000E+000       1.0000000000E+000       9.1942602901E-001       0.0000000000E+000       9.9999999878E-001       0.0000000000E+000       0.0000000000E+000       0.0000000000E+000       0.0000000000E+000       0.0000000000E+000       0.0000000000E+000       1.0000000000E+000       0.0000000000E+000       2.7777777791E-003       0.0000000000E+000
       0.0000000000E+000       1.7599788518E-001       0.0000000000E+000       1.0000000000E+000       9.2185528838E-001       0.0000000000E+000       9.9999999878E-001       0.0000000000E+000       0.0000000000E+000       0.0000000000E+000       0.0000000000E+000       0.0000000000E+000       0.0000000000E+000       1.0000000000E+000       0.0000000000E+000       2.7777777791E-003       0.0000000000E+000
       0.0000000000E+000       2.1409841984E-001       0.0000000000E+000       1.0000000000E+000       9.2466769143E-001       0.0000000000E+000       9.9999999878E-001       0.0000000000E+000       0.0000000000E+000       0.0000000000E+000       0.0000000000E+000       0.0000000000E+000       0.0000000000E+000       1.0000000000E+000       0.0000000000E+000       2.7777777791E-003       0.0000000000E+000
       0.0000000000E+000       2.5031472918E-001       0.0000000000E+000       1.0000000000E+000       9.2773843619E-001       0.0000000000E+000       9.9999999878E-001       0.0000000000E+000       0.0000000000E+000       0.0000000000E+000       0.0000000000E+000       0.0000000000E+000       0.0000000000E+000       1.0000000000E+000       0.0000000000E+000       2.7777777791E-003       0.0000000000E+000
       0.0000000000E+000       2.8412521274E-001       0.0000000000E+000       1.0000000000E+000       9.3092478117E-001       0.0000000000E+000       9.9999999878E-001       0.0000000000E+000       0.0000000000E+000       0.0000000000E+000       0.0000000000E+000       0.0000000000E+000       0.0000000000E+000       1.0000000000E+000       0.0000000000E+000       2.7777777791E-003       0.0000000000E+000
       0.0000000000E+000       3.1516234544E-001       0.0000000000E+000       1.0000000000E+000       9.3408943250E-001       0.0000000000E+000       9.9999999878E-001       0.0000000000E+000       0.0000000000E+000       0.0000000000E+000       0.0000000000E+000       0.0000000000E+000       0.0000000000E+000       1.0000000000E+000       0.0000000000E+000       2.7777777791E-003       0.0000000000E+000
       0.0000000000E+000       3.4321561122E-001       0.0000000000E+000       1.0000000000E+000       9.3712003485E-001       0.0000000000E+000       9.9999999878E-001       0.0000000000E+000       0.0000000000E+000       0.0000000000E+000       0.0000000000E+000       0.0000000000E+000       0.0000000000E+000       1.0000000000E+000       0.0000000000E+000       2.7777777791E-003       0.0000000000E+000
       0.0000000000E+000       3.6821862997E-001       0.0000000000E+000       1.0000000000E+000       9.3994349317E-001       0.0000000000E+000       9.9999999878E-001       0.0000000000E+000       0.0000000000E+000       0.0000000000E+000       0.0000000000E+000       0.0000000000E+000       0.0000000000E+000       1.0000000000E+000       0.0000000000E+000       2.7777777791E-003       0.0000000000E+000
       0.0000000000E+000       3.9022562849E-001       0.0000000000E+000       1.0000000000E+000       9.4253293428E-001       0.0000000000E+000       9.9999999878E-001       0.0000000000E+000       0.0000000000E+000       0.0000000000E+000       0.0000000000E+000       0.0000000000E+000       0.0000000000E+000       1.0000000000E+000       0.0000000000E+000       2.7777777791E-003       0.0000000000E+000
       0.0000000000E+000       4.0938280595E-001       0.0000000000E+000       1.0000000000E+000       9.4490339009E-001       0.0000000000E+000       9.9999999878E-001       0.0000000000E+000       0.0000000000E+000       0.0000000000E+000       0.0000000000E+000       0.0000000000E+000       0.0000000000E+000       1.0000000000E+000       0.0000000000E+000       2.7777777791E-003       0.0000000000E+000
       0.0000000000E+000       4.2589932138E-001       0.0000000000E+000       1.0000000000E+000       9.4709300184E-001       0.0000000000E+000       9.9999999878E-001       0.0000000000E+000       0.0000000000E+000       0.0000000000E+000       0.0000000000E+000       0.0000000000E+000       0.0000000000E+000       1.0000000000E+000       0.0000000000E+000       2.7777777791E-003       0.0000000000E+000
       0.0000000000E+000       4.4002119401E-001       0.0000000000E+000       1.0000000000E+000       9.4913359559E-001       0.0000000000E+000       9.9999999878E-001       0.0000000000E+000       0.0000000000E+000       0.0000000000E+000       0.0000000000E+000       0.0000000000E+000       0.0000000000E+000       1.0000000000E+000       0.0000000000E+000       2.7777777791E-003       0.0000000000E+000
       0.0000000000E+000       4.5200990049E-001       0.0000000000E+000       1.0000000000E+000       9.5102491075E-001       0.0000000000E+000       9.9999999878E-001       0.0000000000E+000       0.0000000000E+000       0.0000000000E+000       0.0000000000E+000       0.0000000000E+000       0.0000000000E+000       1.0000000000E+000       0.0000000000E+000       2.7777777791E-003       0.0000000000E+000
       0.0000000000E+000       4.6212621624E-001       0.0000000000E+000       1.0000000000E+000       9.5272913930E-001       0.0000000000E+000       9.9999999878E-001       0.0000000000E+000       0.0000000000E+000       0.0000000000E+000       0.0000000000E+000       0.0000000000E+000       0.0000000000E+000       1.0000000000E+000       0.0000000000E+000       2.7777777791E-003       0.0000000000E+000
       0.0000000000E+000       4.7061901023E-001       0.0000000000E+000       1.0000000000E+000       9.5418984469E-001       0.0000000000E+000       9.9999999878E-001       0.0000000000E+000       0.0000000000E+000       0.0000000000E+000       0.0000000000E+000       0.0000000000E+000       0.0000000000E+000       1.0000000000E+000       0.0000000000E+000       2.7777777791E-003       0.0000000000E+000
       0.0000000000E+000       4.7771824678E-001       0.0000000000E+000       1.0000000000E+000       9.5536175536E-001       0.0000000000E+000       9.9999999878E-001       0.0000000000E+000       0.0000000000E+000       0.0000000000E+000       0.0000000000E+000       0.0000000000E+000       0.0000000000E+000       1.0000000000E+000       0.0000000000E+000       2.7777777791E-003       0.0000000000E+000
       0.0000000000E+000       4.8363128336E-001       0.0000000000E+000       1.0000000000E+000       9.5623220295E-001       0.0000000000E+000       9.9999999878E-001       0.0000000000E+000       0.0000000000E+000       0.0000000000E+000       0.0000000000E+000       0.0000000000E+000       0.0000000000E+000       1.0000000000E+000       0.0000000000E+000       2.7777777791E-003       0.0000000000E+000
       0.0000000000E+000       4.8854157621E-001       0.0000000000E+000       1.0000000000E+000       9.5682453991E-001       0.0000000000E+000       9.9999999878E-001       0.0000000000E+000       0.0000000000E+000       0.0000000000E+000       0.0000000000E+000       0.0000000000E+000       0.0000000000E+000       1.0000000000E+000       0.0000000000E+000       2.7777777791E-003       0.0000000000E+000
       0.0000000000E+000       4.9260902662E-001       0.0000000000E+000       1.0000000000E+000       9.5718716183E-001       0.0000000000E+000       9.9999999878E-001       0.0000000000E+000       0.0000000000E+000       0.0000000000E+000       0.0000000000E+000       0.0000000000E+000       0.0000000000E+000       1.0000000000E+000       0.0000000000E+000       2.7777777791E-003       0.0000000000E+000
       0.0000000000E+000       4.9597135731E-001       0.0000000000E+000       1.0000000000E+000       9.5737783197E-001       0.0000000000E+000       9.9999999878E-001       0.0000000000E+000       0.0000000000E+000       0.0000000000E+000       0.0000000000E+000       0.0000000000E+000       0.0000000000E+000       1.0000000000E+000       0.0000000000E+000       2.7777777791E-003       0.0000000000E+000
       0.0000000000E+000       4.9874606344E-001       0.0000000000E+000       1.0000000000E+000       9.5745101124E-001       0.0000000000E+000       9.9999999878E-001       0.0000000000E+000       0.0000000000E+000       0.0000000000E+000       0.0000000000E+000       0.0000000000E+000       0.0000000000E+000       1.0000000000E+000       0.0000000000E+000       2.7777777791E-003       0.0000000000E+000
       0.0000000000E+000       5.0125393656E-001       0.0000000000E+000       1.0000000000E+000       9.5745101124E-001       0.0000000000E+000       9.9999999878E-001       0.0000000000E+000       0.0000000000E+000       0.0000000000E+000       0.0000000000E+000       0.0000000000E+000       0.0000000000E+000       1.0000000000E+000       0.0000000000E+000       2.7777777791E-003       0.0000000000E+000
       2.0833333333E-001      -1.8873724212E-002      -9.1072674002E-003       1.1005285098E+000       9.1488879154E-001       0.0000000000E+000       9.9999999878E-001       1.0000000000E-001       1.0000000000E+000       6.6666666667E-002       1.0000000000E-003       1.0000000000E-003       0.0000000000E+000       1.0000000003E+000       0.0000000000E+000       2.7777777791E-003       0.0000000000E+000
       2.0833333333E-001       1.8873724212E-002      -9.1072674002E-003       1.1005285098E+000       9.1488879154E-001       0.0000000000E+000       9.9999999878E-001       1.0000000000E-001       1.0000000000E+000       6.6666666667E-002       1.0000000000E-003       1.0000000000E-003       1.9219851568E+002       1.0000000003E+000       8.2539638221E+001       2.7777777791E-003       0.0000000000E+000
       2.0833333333E-001       5.7333443020E-002      -1.3883530489E-002       1.1012531839E+000       9.1596267958E-001       0.0000000000E+000       9.9999999878E-001       1.0000000000E-001       1.0000000000E+000       6.6666666667E-002       1.0000000000E-003       1.0000000000E-003       1.7683477181E+002       1.0000000003E+000       8.2593988782E+001       2.7777777791E-003       0.0000000000E+000
       2.0833333333E-001       9.6851141461E-002      -2.3611302149E-002       1.1025444495E+000       9.1746014429E-001       0.0000000000E+000       9.9999999878E-001       1.0000000000E-001       1.0000000000E+000       6.6666666667E-002       1.0000000000E-003       1.0000000000E-003       1.6104839022E+002       1.0000000003E+000       8.2690833705E+001       2.7777777791E-003       0.0000000000E+000
       2.0833333333E-001       1.3666693112E-001      -3.3635617517E-002       1.1044234858E+000       9.1942602901E-001       0.0000000000E+000       9.9999999878E-001       1.0000000000E-001       1.0000000000E+000       6.6666666667E-002       1.0000000000E-003       1.0000000000E-003       1.4514292827E+002       1.0000000003E+000       8.2831761422E+001       2.7777777791E-003       0.0000000000E+000
       2.0833333333E-001       1.7599788518E-001      -4.3836237266E-002       1.1068241139E+000       9.2185528838E-001       0.0000000000E+000       9.9999999878E-001       1.0000000000E-001       1.0000000000E+000       6.6666666667E-002       1.0000000000E-003       1.0000000000E-003       1.2943114662E+002       1.0000000003E+000       8.3011808534E+001       2.7777777791E-003       0.0000000000E+000
       2.0833333333E-001       2.1409841984E-001      -5.4065054067E-002       1.1095797525E+000       9.2466769143E-001       0.0000000000E+000       9.9999999878E-001       1.0000000000E-001       1.0000000000E+000       6.6666666667E-002       1.0000000000E-003       1.0000000000E-003       1.1421088829E+002       1.0000000003E+000       8.3218481428E+001       2.7777777791E-003       0.0000000000E+000
       2.0833333333E-001       2.5031472918E-001      -6.4140197912E-002       1.1123876991E+000       9.2773843619E-001       0.0000000000E+000       9.9999999878E-001       1.0000000000E-001       1.0000000000E+000       6.6666666667E-002       1.0000000000E-003       1.0000000000E-003       9.9743333200E+001       1.0000000003E+000       8.3429077419E+001       2.7777777791E-003       0.0000000000E+000
       2.0833333333E-001       2.8412521274E-001      -7.3840331303E-002       1.1147407497E+000       9.3092478117E-001       0.0000000000E+000       9.9999999878E-001       1.0000000000E-001       1.0000000000E+000       6.6666666667E-002       1.0000000000E-003       1.0000000000E-003       8.6236848352E+001       1.0000000003E+000       8.3605556215E+001       2.7777777791E-003       0.0000000000E+000
       2.0833333333E-001       3.1516234544E-001      -8.2898189867E-002       1.1158205842E+000       9.3408943250E-001       0.0000000000E+000       9.9999999878E-001       1.0000000000E-001       1.0000000000E+000       6.6666666667E-002       1.0000000000E-003       1.0000000000E-003       7.3838251276E+001       1.0000000003E+000       8.3686543806E+001       2.7777777791E-003       0.0000000000E+000
       2.0833333333E-001       3.4321561122E-001      -9.0994754632E-002       1.1143652313E+000       9.3712003485E-001       0.0000000000E+000       9.9999999878E-001       1.0000000000E-001       1.0000000000E+000       6.6666666667E-002       1.0000000000E-003       1.0000000000E-003       6.2631638141E+001       1.0000000003E+000       8.3577392338E+001       2.7777777791E-003       0.0000000000E+000
       2.0833333333E-001       3.6821862997E-001      -9.7759273430E-002       1.1085488501E+000       9.3994349317E-001       0.0000000000E+000       9.9999999878E-001       1.0000000000E-001       1.0000000000E+000       6.6666666667E-002       1.0000000000E-003       1.0000000000E-003       5.2643526219E+001       1.0000000003E+000       8.3141163750E+001       2.7777777791E-003       0.0000000000E+000
       2.0833333333E-001       3.9022562849E-001      -1.0278281047E-001       1.0959341574E+000       9.4253293428E-001       0.0000000000E+000       9.9999999878E-001       1.0000000000E-001       1.0000000000E+000       6.6666666667E-002       1.0000000000E-003       1.0000000000E-003       4.3852253193E+001       1.0000000003E+000       8.2195061793E+001       2.7777777791E-003       0.0000000000E+000
       2.0833333333E-001       4.0938280595E-001      -1.0565142447E-001       1.0735671098E+000       9.4490339009E-001       0.0000000000E+000       9.9999999878E-001       1.0000000000E-001       1.0000000000E+000       6.6666666667E-002       1.0000000000E-003       1.0000000000E-003       3.6199415969E+001       1.0000000003E+000       8.0517533229E+001       2.7777777791E-003       0.0000000000E+000
       2.0833333333E-001       4.2589932138E-001      -1.0599946720E-001       1.0382796519E+000       9.4709300184E-001       0.0000000000E+000       9.9999999878E-001       1.0000000000E-001       1.0000000000E+000       6.6666666667E-002       1.0000000000E-003       1.0000000000E-003       2.9601460484E+001       1.0000000003E+000       7.7870973887E+001       2.7777777791E-003       0.0000000000E+000
       2.0833333333E-001       4.4002119401E-001      -1.0357621100E-001       9.8724420898E-001       9.4913359559E-001       0.0000000000E+000       9.9999999878E-001       1.0000000000E-001       1.0000000000E+000       6.6666666667E-002       1.0000000000E-003       1.0000000000E-003       2.3960107906E+001       1.0000000003E+000       7.4043315665E+001       2.7777777791E-003       0.0000000000E+000
       2.0833333333E-001       4.5200990049E-001      -9.8312143172E-002       9.1875060429E-001       9.5102491075E-001       0.0000000000E+000       9.9999999878E-001       1.0000000000E-001       1.0000000000E+000       6.6666666667E-002       1.0000000000E-003       1.0000000000E-003       1.9170904516E+001       1.0000000003E+000       6.8906295314E+001       2.7777777791E-003       0.0000000000E+000
       2.0833333333E-001       4.6212621624E-001      -9.0365841620E-002       8.3301583367E-001       9.5272913930E-001       0.0000000000E+000       9.9999999878E-001       1.0000000000E-001       1.0000000000E+000       6.6666666667E-002       1.0000000000E-003       1.0000000000E-003       1.5129676736E+001       1.0000000003E+000       6.2476187518E+001       2.7777777791E-003       0.0000000000E+000
       2.0833333333E-001       4.7061901023E-001      -8.0131173734E-002       7.3265404371E-001       9.5418984469E-001       0.0000000000E+000       9.9999999878E-001       1.0000000000E-001       1.0000000000E+000       6.6666666667E-002       1.0000000000E-003       1.0000000000E-003       1.1737007324E+001       1.0000000003E+000       5.4949053271E+001       2.7777777791E-003       0.0000000000E+000
       2.0833333333E-001       4.7771824678E-001      -6.8193095829E-002       6.2244294889E-001       9.5536175536E-001       0.0000000000E+000       9.9999999878E-001       1.0000000000E-001       1.0000000000E+000       6.6666666667E-002       1.0000000000E-003       1.0000000000E-003       8.9010309998E+000       1.0000000003E+000       4.6683221161E+001       2.7777777791E-003       0.0000000000E+000
       2.0833333333E-001       4.8363128336E-001      -5.5239595826E-002       5.0836028160E-001       9.5623220295E-001       0.0000000000E+000       9.9999999878E-001       1.0000000000E-001       1.0000000000E+000       6.6666666667E-002       1.0000000000E-003       1.0000000000E-003       6.5389133798E+000       1.0000000003E+000       3.8127021115E+001       2.7777777791E-003       0.0000000000E+000
       2.0833333333E-001       4.8854157621E-001      -4.1956891239E-002       3.9630051405E-001       9.5682453991E-001       0.0000000000E+000       9.9999999878E-001       1.0000000000E-001       1.0000000000E+000       6.6666666667E-002       1.0000000000E-003       1.0000000000E-003       4.5773680531E+000       1.0000000003E+000       2.9722538550E+001       2.7777777791E-003       0.0000000000E+000
       2.0833333333E-001       4.9260902662E-001      -2.8940454569E-002       2.9102327418E-001       9.5718716183E-001       0.0000000000E+000       9.9999999878E-001       1.0000000000E-001       1.0000000000E+000       6.6666666667E-002       1.0000000000E-003       1.0000000000E-003       2.9525182574E+000       1.0000000003E+000       2.1826745561E+001       2.7777777791E-003       0.0000000000E+000
       2.0833333333E-001       4.9597135731E-001      -1.6642736268E-002       1.9565093008E-001       9.5737783197E-001       0.0000000000E+000       9.9999999878E-001       1.0000000000E-001       1.0000000000E+000       6.6666666667E-002       1.0000000000E-003       1.0000000000E-003       1.6093470347E+000       1.0000000003E+000       1.4673819754E+001       2.7777777791E-003       0.0000000000E+000
       2.0833333333E-001       4.9874606344E-001      -5.3601017646E-003       1.1169324499E-001       9.5745101124E-001       0.0000000000E+000       9.9999999878E-001       1.0000000000E-001       1.0000000000E+000       6.6666666667E-002       1.0000000000E-003       1.0000000000E-003       5.0091786188E-001       1.0000000003E+000       8.3769933729E+000       2.7777777791E-003       0.0000000000E+000
       2.0833333333E-001       5.0125393656E-001       5.3601017646E-003      -1.1169324499E-001       9.5745101124E-001       0.0000000000E+000       9.9999999878E-001       0.0000000000E+000       0.0000000000E+000       0.0000000000E+000       0.0000000000E+000       0.0000000000E+000       0.0000000000E+000       1.0000000003E+000       0.0000000000E+000       2.7777777791E-003      -0.0000000000E+000
       4.1666666667E-001      -1.8873724212E-002      -6.7599410903E-003       1.1751465896E+000       7.8989286761E-001       0.0000000000E+000       9.9999999878E-001       1.0000000000E-001       1.0000000000E+000       6.6666666667E-002       1.0000000000E-003       1.0000000000E-003       0.0000000000E+000       1.0000000003E+000       0.0000000000E+000       2.7777777791E-003       0.0000000000E+000
       4.1666666667E-001       1.8873724212E-002      -6.7599410903E-003       1.1751465896E+000       7.8989286761E-001       0.0000000000E+000       9.9999999878E-001       1.0000000000E-001       1.0000000000E+000       6.6666666667E-002       1.0000000000E-003       1.0000000000E-003       7.3765838032E+001       1.0000000003E+000       8.8135994210E+001       2.7777777791E-003       0.0000000000E+000
       4.1666666667E-001       5.7333443020E-002      -1.0256853755E-002       1.1757198006E+000       7.8961175636E-001       0.0000000000E+000       9.9999999878E-001       1.0000000000E-001       1.0000000000E+000       6.6666666667E-002       1.0000000000E-003       1.0000000000E-003       6.7869229322E+001       1.0000000003E+000       8.8178985032E+001       2.7777777791E-003       0.0000000000E+000
       4.1666666667E-001       9.6851141461E-002      -1.7292526624E-002       1.1767302336E+000       7.8873924362E-001       0.0000000000E+000       9.9999999878E-001       1.0000000000E-001       1.0000000000E+000       6.6666666667E-002       1.0000000000E-003       1.0000000000E-003       6.1810412148E+001       1.0000000003E+000       8.8254767509E+001       2.7777777791E-003       0.0000000000E+000
       4.1666666667E-001       1.3666693112E-001      -2.4326041202E-002       1.1781217004E+000       7.8720426883E-001       0.0000000000E+000       9.9999999878E-001       1.0000000000E-001       1.0000000000E+000       6.6666666667E-002       1.0000000000E-003       1.0000000000E-003       5.5705891904E+001       1.0000000003E+000       8.8359127521E+001       2.7777777791E-003       0.0000000000E+000
       4.1666666667E-001       1.7599788518E-001      -3.1182650850E-002       1.1797512277E+000       7.8503358948E-001       0.0000000000E+000       9.9999999878E-001       1.0000000000E-001       1.0000000000E+000       6.6666666667E-002       1.0000000000E-003       1.0000000000E-003       4.9675706205E+001       1.0000000003E+000       8.8481342070E+001       2.7777777791E-003       0.0000000000E+000
       4.1666666667E-001       2.1409841984E-001      -3.7683575612E-002       1.1813072862E+000       7.8227976438E-001       0.0000000000E+000       9.9999999878E-001       1.0000000000E-001       1.0000000000E+000       6.6666666667E-002       1.0000000000E-003       1.0000000000E-003       4.3834167279E+001       1.0000000003E+000       8.8598046458E+001       2.7777777791E-003       0.0000000000E+000
       4.1666666667E-001       2.5031472918E-001      -4.3645216688E-002       1.1821951725E+000       7.7902552833E-001       0.0000000000E+000       9.9999999878E-001       1.0000000000E-001       1.0000000000E+000       6.6666666667E-002       1.0000000000E-003       1.0000000000E-003       3.8281516045E+001       1.0000000003E+000       8.8664637923E+001       2.7777777791E-003       0.0000000000E+000
       4.1666666667E-001       2.8412521274E-001      -4.8868287571E-002       1.1813528893E+000       7.7538291298E-001       0.0000000000E+000       9.9999999878E-001       1.0000000000E-001       1.0000000000E+000       6.6666666667E-002       1.0000000000E-003       1.0000000000E-003       3.3097723807E+001       1.0000000003E+000       8.8601466687E+001       2.7777777791E-003       0.0000000000E+000
       4.1666666667E-001       3.1516234544E-001      -5.3119974726E-002       1.1770120002E+000       7.7148740013E-001       0.0000000000E+000       9.9999999878E-001       1.0000000000E-001       1.0000000000E+000       6.6666666667E-002       1.0000000000E-003       1.0000000000E-003       2.8339139171E+001       1.0000000003E+000       8.8275900005E+001       2.7777777791E-003       0.0000000000E+000
       4.1666666667E-001       3.4321561122E-001      -5.6120773338E-002       1.1664873769E+000       7.6749049656E-001       0.0000000000E+000       9.9999999878E-001       1.0000000000E-001       1.0000000000E+000       6.6666666667E-002       1.0000000000E-003       1.0000000000E-003       2.4038038268E+001       1.0000000003E+000       8.7486553258E+001       2.7777777791E-003       0.0000000000E+000
       4.1666666667E-001       3.6821862997E-001      -5.7554574616E-002       1.1461560247E+000       7.6355243672E-001       0.0000000000E+000       9.9999999878E-001       1.0000000000E-001       1.0000000000E+000       6.6666666667E-002       1.0000000000E-003       1.0000000000E-003       2.0204598432E+001       1.0000000003E+000       8.5961701843E+001       2.7777777791E-003       0.0000000000E+000
       4.1666666667E-001       3.9022562849E-001      -5.7118653565E-002       1.1118177940E+000       7.5983346601E-001       0.0000000000E+000       9.9999999878E-001       1.0000000000E-001       1.0000000000E+000       6.6666666667E-002       1.0000000000E-003       1.0000000000E-003       1.6830505662E+001       1.0000000003E+000       8.3386334541E+001       2.7777777791E-003       0.0000000000E+000
       4.1666666667E-001       4.0938280595E-001      -5.4615141727E-002       1.0595636773E+000       7.5648005955E-001       0.0000000000E+000       9.9999999878E-001       1.0000000000E-001       1.0000000000E+000       6.6666666667E-002       1.0000000000E-003       1.0000000000E-003       1.3893344836E+001       1.0000000003E+000       7.9467275788E+001       2.7777777791E-003       0.0000000000E+000
       4.1666666667E-001       4.2589932138E-001      -5.0060428172E-002       9.8707106592E-001       7.5360532463E-001       0.0000000000E+000       9.9999999878E-001       1.0000000000E-001       1.0000000000E+000       6.6666666667E-002       1.0000000000E-003       1.0000000000E-003       1.1361047883E+001       1.0000000003E+000       7.4030329935E+001       2.7777777791E-003       0.0000000000E+000
       4.1666666667E-001       4.4002119401E-001      -4.3764687792E-002       8.9490846971E-001       7.5127004724E-001       0.0000000000E+000       9.9999999878E-001       1.0000000000E-001       1.0000000000E+000       6.6666666667E-002       1.0000000000E-003       1.0000000000E-003       9.1958953626E+000       1.0000000003E+000       6.7118135220E+001       2.7777777791E-003       0.0000000000E+000
       4.1666666667E-001       4.5200990049E-001      -3.6327655225E-002       7.8713095489E-001       7.4947479816E-001       0.0000000000E+000       9.9999999878E-001       1.0000000000E-001       1.0000000000E+000       6.6666666667E-002       1.0000000000E-003       1.0000000000E-003       7.3577979125E+000       1.0000000003E+000       5.9034821609E+001       2.7777777791E-003       0.0000000000E+000
       4.1666666667E-001       4.6212621624E-001      -2.8525652507E-002       6.7057105394E-001       7.4816817153E-001       0.0000000000E+000       9.9999999878E-001       1.0000000000E-001       1.0000000000E+000       6.6666666667E-002       1.0000000000E-003       1.0000000000E-003       5.8067736873E+000       1.0000000003E+000       5.0292829039E+001       2.7777777791E-003       0.0000000000E+000
       4.1666666667E-001       4.7061901023E-001      -2.1124548441E-002       5.5298955121E-001       7.4726647274E-001       0.0000000000E+000       9.9999999878E-001       1.0000000000E-001       1.0000000000E+000       6.6666666667E-002       1.0000000000E-003       1.0000000000E-003       4.5046663250E+000       1.0000000003E+000       4.1474216336E+001       2.7777777791E-003       0.0000000000E+000
       4.1666666667E-001       4.7771824678E-001      -1.4702660811E-002       4.4107015848E-001       7.4667553890E-001       0.0000000000E+000       9.9999999878E-001       1.0000000000E-001       1.0000000000E+000       6.6666666667E-002       1.0000000000E-003       1.0000000000E-003       3.4162179075E+000       1.0000000003E+000       3.3080261882E+001       2.7777777791E-003       0.0000000000E+000