 VARIABLES ="X","Y","U","W","P","C","T","k","eps", "v2","omega","nuSA","yplus","RHO","Pe","mu","mut"
 ZONE I=            98  J=            40  F=POINT 
       0.0000000000E+000      -9.2667936736E-003       0.0000000000E+000       1.4746598603E+002       0.0000000000E+000       0.0000000000E+000       1.0000000000E+000       1.2540532176E+001       1.4702191461E+002       5.8228859337E+000       1.0000000000E-003       1.0000000000E-003       0.0000000000E+000       1.0000000000E+000       0.0000000000E+000       2.7777777778E-003       1.0904920249E-001
       0.0000000000E+000       9.2667936736E-003       0.0000000000E+000       1.4746598603E+002       0.0000000000E+000       0.0000000000E+000       1.0000000000E+000       1.2540532176E+001       1.4702191461E+002       5.8228859337E+000       1.0000000000E-003       1.0000000000E-003       0.0000000000E+000       1.0000000000E+000       0.0000000000E+000       2.7777777778E-003       1.0904920249E-001
       0.0000000000E+000       2.7920250859E-002       0.0000000000E+000       1.4728607010E+002       0.0000000000E+000       0.0000000000E+000       1.0000000000E+000       1.3374916185E+001       1.6265200531E+002       6.0531838338E+000       1.0000000000E-003       1.0000000000E-003       0.0000000000E+000       1.0000000000E+000       0.0000000000E+000       2.7777777778E-003       1.0928558162E-001
       0.0000000000E+000       4.6803837788E-002       0.0000000000E+000       1.4692410678E+002       0.0000000000E+000       0.0000000000E+000       1.0000000000E+000       1.4998297543E+001       1.9351939809E+002       6.5114134208E+000       1.0000000000E-003       1.0000000000E-003       0.0000000000E+000       1.0000000000E+000       0.0000000000E+000       2.7777777778E-003       1.1080562469E-001
       0.0000000000E+000       6.5897829027E-002       0.0000000000E+000       1.4638882045E+002       0.0000000000E+000       0.0000000000E+000       1.0000000000E+000       1.7278897371E+001       2.3777548470E+002       7.1770430170E+000       1.0000000000E-003       1.0000000000E-003       0.0000000000E+000       1.0000000000E+000       0.0000000000E+000       2.7777777778E-003       1.1453044511E-001
       0.0000000000E+000       8.5181526490E-002       0.0000000000E+000       1.4570117456E+002       0.0000000000E+000       0.0000000000E+000       1.0000000000E+000       2.0021924896E+001       2.9221913726E+002       8.0095592055E+000       1.0000000000E-003       1.0000000000E-003       0.0000000000E+000       1.0000000000E+000       0.0000000000E+000       2.7777777778E-003       1.2053376060E-001
       0.0000000000E+000       1.0463334093E-001       0.0000000000E+000       1.4488829568E+002       0.0000000000E+000       0.0000000000E+000       1.0000000000E+000       2.3026128501E+001       3.5321407923E+002       8.9592329864E+000       1.0000000000E-003       1.0000000000E-003       0.0000000000E+000       1.0000000000E+000       0.0000000000E+000       2.7777777778E-003       1.2830154762E-001
       0.0000000000E+000       1.2423088209E-001       0.0000000000E+000       1.4397633583E+002       0.0000000000E+000       0.0000000000E+000       1.0000000000E+000       2.6128387453E+001       4.1760126062E+002       9.9798140886E+000       1.0000000000E-003       1.0000000000E-003       0.0000000000E+000       1.0000000000E+000       0.0000000000E+000       2.7777777778E-003       1.3718766195E-001
       0.0000000000E+000       1.4395105684E-001       0.0000000000E+000       1.4298693253E+002       0.0000000000E+000       0.0000000000E+000       1.0000000000E+000       2.9216049621E+001       4.8306589037E+002       1.1034725281E+001       1.0000000000E-003       1.0000000000E-003       0.0000000000E+000       1.0000000000E+000       0.0000000000E+000       2.7777777778E-003       1.4664547763E-001
       0.0000000000E+000       1.6377017442E-001       0.0000000000E+000       1.4193679876E+002       0.0000000000E+000       0.0000000000E+000       1.0000000000E+000       3.2219091605E+001       5.4808028387E+002       1.2097494929E+001       1.0000000000E-003       1.0000000000E-003       0.0000000000E+000       1.0000000000E+000       0.0000000000E+000       2.7777777778E-003       1.5627709030E-001
       0.0000000000E+000       1.8366405776E-001       0.0000000000E+000       1.4083860872E+002       0.0000000000E+000       0.0000000000E+000       1.0000000000E+000       3.5097197384E+001       6.1169922449E+002       1.3149770960E+001       1.0000000000E-003       1.0000000000E-003       0.0000000000E+000       1.0000000000E+000       0.0000000000E+000       2.7777777778E-003       1.6581103071E-001
       0.0000000000E+000       2.0360815989E-001       0.0000000000E+000       1.3970206821E+002       0.0000000000E+000       0.0000000000E+000       1.0000000000E+000       3.7828780579E+001       6.7336358618E+002       1.4179011876E+001       1.0000000000E-003       1.0000000000E-003       0.0000000000E+000       1.0000000000E+000       0.0000000000E+000       2.7777777778E-003       1.7506649074E-001
       0.0000000000E+000       2.2357768425E-001       0.0000000000E+000       1.3853478417E+002       0.0000000000E+000       0.0000000000E+000       1.0000000000E+000       4.0403406762E+001       7.3275720646E+002       1.5176610922E+001       1.0000000000E-003       1.0000000000E-003       0.0000000000E+000       1.0000000000E+000       0.0000000000E+000       2.7777777778E-003       1.8392303829E-001
       0.0000000000E+000       2.4354770750E-001       0.0000000000E+000       1.3734288176E+002       0.0000000000E+000       0.0000000000E+000       1.0000000000E+000       4.2817048524E+001       7.8971415238E+002       1.6136564607E+001       1.0000000000E-003       1.0000000000E-003       0.0000000000E+000       1.0000000000E+000       0.0000000000E+000       2.7777777778E-003       1.9229906921E-001
       0.0000000000E+000       2.6349330387E-001       0.0000000000E+000       1.3613141876E+002       0.0000000000E+000       0.0000000000E+000       1.0000000000E+000       4.5069269694E+001       8.4416184500E+002       1.7054588434E+001       1.0000000000E-003       1.0000000000E-003       0.0000000000E+000       1.0000000000E+000       0.0000000000E+000       2.7777777778E-003       2.0013765217E-001
       0.0000000000E+000       2.8338966932E-001       0.0000000000E+000       1.3490465882E+002       0.0000000000E+000       0.0000000000E+000       1.0000000000E+000       4.7161609763E+001       8.9608680924E+002       1.7927551287E+001       1.0000000000E-003       1.0000000000E-003       0.0000000000E+000       1.0000000000E+000       0.0000000000E+000       2.7777777778E-003       2.0739768541E-001
       0.0000000000E+000       3.0321224457E-001       0.0000000000E+000       1.3366625236E+002       0.0000000000E+000       0.0000000000E+000       1.0000000000E+000       4.9096679399E+001       9.4551385562E+002       1.8753121683E+001       1.0000000000E-003       1.0000000000E-003       0.0000000000E+000       1.0000000000E+000       0.0000000000E+000       2.7777777778E-003       2.1404859806E-001
       0.0000000000E+000       3.2293683551E-001       0.0000000000E+000       1.3241935866E+002       0.0000000000E+000       0.0000000000E+000       1.0000000000E+000       5.0877665065E+001       9.9249302578E+002       1.9529549205E+001       1.0000000000E-003       1.0000000000E-003       0.0000000000E+000       1.0000000000E+000       0.0000000000E+000       2.7777777778E-003       2.2006730710E-001
       0.0000000000E+000       3.4253972973E-001       0.0000000000E+000       1.3116673101E+002       0.0000000000E+000       0.0000000000E+000       1.0000000000E+000       5.2508064582E+001       1.0370910409E+003       2.0255529620E+001       1.0000000000E-003       1.0000000000E-003       0.0000000000E+000       1.0000000000E+000       0.0000000000E+000       2.7777777778E-003       2.2543654959E-001
       0.0000000000E+000       3.6199780814E-001       0.0000000000E+000       1.2991077831E+002       0.0000000000E+000       0.0000000000E+000       1.0000000000E+000       5.3991551487E+001       1.0793854542E+003       2.0930120604E+001       1.0000000000E-003       1.0000000000E-003       0.0000000000E+000       1.0000000000E+000       0.0000000000E+000       2.7777777778E-003       2.3014401385E-001
       0.0000000000E+000       3.8128865043E-001       0.0000000000E+000       1.2865361154E+002       0.0000000000E+000       0.0000000000E+000       1.0000000000E+000       5.5331910501E+001       1.1194605311E+003       2.1552687426E+001       1.0000000000E-003       1.0000000000E-003       0.0000000000E+000       1.0000000000E+000       0.0000000000E+000       2.7777777778E-003       2.3418190503E-001
       0.0000000000E+000       4.0039063353E-001       0.0000000000E+000       1.2739708015E+002       0.0000000000E+000       0.0000000000E+000       1.0000000000E+000       5.6533011741E+001       1.1574043142E+003       2.2122866075E+001       1.0000000000E-003       1.0000000000E-003       0.0000000000E+000       1.0000000000E+000       0.0000000000E+000       2.7777777778E-003       2.3754672397E-001
       0.0000000000E+000       4.1928302209E-001       0.0000000000E+000       1.2614280141E+002       0.0000000000E+000       0.0000000000E+000       1.0000000000E+000       5.7598805406E+001       1.1933065520E+003       2.2640536426E+001       1.0000000000E-003       1.0000000000E-003       0.0000000000E+000       1.0000000000E+000       0.0000000000E+000       2.7777777778E-003       2.4023913052E-001
       0.0000000000E+000       4.3794605030E-001       0.0000000000E+000       1.2489218473E+002       0.0000000000E+000       0.0000000000E+000       1.0000000000E+000       5.8533326478E+001       1.2272572774E+003       2.3105801165E+001       1.0000000000E-003       1.0000000000E-003       0.0000000000E+000       1.0000000000E+000       0.0000000000E+000       2.7777777778E-003       2.4226382167E-001
       0.0000000000E+000       4.5636099455E-001       0.0000000000E+000       1.2364645214E+002       0.0000000000E+000       0.0000000000E+000       1.0000000000E+000       5.9340703367E+001       1.2593458810E+003       2.3518968098E+001       1.0000000000E-003       1.0000000000E-003       0.0000000000E+000       1.0000000000E+000       0.0000000000E+000       2.7777777778E-003       2.4362939008E-001
       0.0000000000E+000       4.7451023629E-001       0.0000000000E+000       1.2240665585E+002       0.0000000000E+000       0.0000000000E+000       1.0000000000E+000       6.0025166910E+001       1.2896605574E+003       2.3880534503E+001       1.0000000000E-003       1.0000000000E-003       0.0000000000E+000       1.0000000000E+000       0.0000000000E+000       2.7777777778E-003       2.4434814914E-001
       0.0000000000E+000       4.9237731502E-001       0.0000000000E+000       1.2117369334E+002       0.0000000000E+000       0.0000000000E+000       1.0000000000E+000       6.0591057703E+001       1.3182880298E+003       2.4191172838E+001       1.0000000000E-003       1.0000000000E-003       0.0000000000E+000       1.0000000000E+000       0.0000000000E+000       2.7777777778E-003       2.4443592213E-001
       0.0000000000E+000       5.0994697103E-001       0.0000000000E+000       1.1994832067E+002       0.0000000000E+000       0.0000000000E+000       1.0000000000E+000       6.1042830652E+001       1.3453134752E+003       2.4451717412E+001       1.0000000000E-003       1.0000000000E-003       0.0000000000E+000       1.0000000000E+000       0.0000000000E+000       2.7777777778E-003       2.4391179846E-001
       0.0000000000E+000       5.2720517819E-001       0.0000000000E+000       1.1873116404E+002       0.0000000000E+000       0.0000000000E+000       1.0000000000E+000       6.1385056318E+001       1.3708205947E+003       2.4663151836E+001       1.0000000000E-003       1.0000000000E-003       0.0000000000E+000       1.0000000000E+000       0.0000000000E+000       2.7777777778E-003       2.4279786234E-001
       0.0000000000E+000       5.4413916653E-001       0.0000000000E+000       1.1752273019E+002       0.0000000000E+000       0.0000000000E+000       1.0000000000E+000       6.1622418971E+001       1.3948917865E+003       2.4826597096E+001       1.0000000000E-003       1.0000000000E-003       0.0000000000E+000       1.0000000000E+000       0.0000000000E+000       2.7777777778E-003       2.4111890019E-001
       0.0000000000E+000       5.6073743527E-001       0.0000000000E+000       1.1632341561E+002       0.0000000000E+000       0.0000000000E+000       1.0000000000E+000       6.1759711603E+001       1.4176083898E+003       2.4943300199E+001       1.0000000000E-003       1.0000000000E-003       0.0000000000E+000       1.0000000000E+000       0.0000000000E+000       2.7777777778E-003       2.3890209255E-001
       0.0000000000E+000       5.7698975628E-001       0.0000000000E+000       1.1513351487E+002       0.0000000000E+000       0.0000000000E+000       1.0000000000E+000       6.1801828238E+001       1.4390509825E+003       2.5014623276E+001       1.0000000000E-003       1.0000000000E-003       0.0000000000E+000       1.0000000000E+000       0.0000000000E+000       2.7777777778E-003       2.3617669615E-001
       0.0000000000E+000       5.9288716879E-001       0.0000000000E+000       1.1395322818E+002       0.0000000000E+000       0.0000000000E+000       1.0000000000E+000       6.1753754003E+001       1.4592997163E+003       2.5042033098E+001       1.0000000000E-003       1.0000000000E-003       0.0000000000E+000       1.0000000000E+000       0.0000000000E+000       2.7777777778E-003       2.3297372081E-001
       0.0000000000E+000       6.0842196558E-001       0.0000000000E+000       1.1278266828E+002       0.0000000000E+000       0.0000000000E+000       1.0000000000E+000       6.1620553406E+001       1.4784346842E+003       2.5027090915E+001       1.0000000000E-003       1.0000000000E-003       0.0000000000E+000       1.0000000000E+000       0.0000000000E+000       2.7777777778E-003       2.2932560562E-001
       0.0000000000E+000       6.2358767156E-001       0.0000000000E+000       1.1162186673E+002       0.0000000000E+000       0.0000000000E+000       1.0000000000E+000       6.1407357285E+001       1.4965363145E+003       2.4971442545E+001       1.0000000000E-003       1.0000000000E-003       0.0000000000E+000       1.0000000000E+000       0.0000000000E+000       2.7777777778E-003       2.2526589811E-001
       0.0000000000E+000       6.3837901513E-001       0.0000000000E+000       1.1047077970E+002       0.0000000000E+000       0.0000000000E+000       1.0000000000E+000       6.1119348819E+001       1.5136857898E+003       2.4876808656E+001       1.0000000000E-003       1.0000000000E-003       0.0000000000E+000       1.0000000000E+000       0.0000000000E+000       2.7777777778E-003       2.2082893979E-001
       0.0000000000E+000       6.5279189332E-001       0.0000000000E+000       1.0932929334E+002       0.0000000000E+000       0.0000000000E+000       1.0000000000E+000       6.0761748983E+001       1.5299654905E+003       2.4744975155E+001       1.0000000000E-003       1.0000000000E-003       0.0000000000E+000       1.0000000000E+000       0.0000000000E+000       2.7777777778E-003       2.1604956103E-001
       0.0000000000E+000       6.6682333117E-001       0.0000000000E+000       1.0819722862E+002       0.0000000000E+000       0.0000000000E+000       1.0000000000E+000       6.0339801739E+001       1.5454594645E+003       2.4577783646E+001       1.0000000000E-003       1.0000000000E-003       0.0000000000E+000       1.0000000000E+000       0.0000000000E+000       2.7777777778E-003       2.1096278798E-001
       0.0000000000E+000       6.8047143635E-001       0.0000000000E+000       1.0707434586E+002       0.0000000000E+000       0.0000000000E+000       1.0000000000E+000       5.9858759255E+001       1.5602539236E+003       2.4377121906E+001       1.0000000000E-003       1.0000000000E-003       0.0000000000E+000       1.0000000000E+000       0.0000000000E+000       2.7777777778E-003       2.0560356380E-001
       0.0000000000E+000       6.9373534961E-001       0.0000000000E+000       1.0596034883E+002       0.0000000000E+000       0.0000000000E+000       1.0000000000E+000       5.9323867346E+001       1.5744377693E+003       2.4144914350E+001       1.0000000000E-003       1.0000000000E-003       0.0000000000E+000       1.0000000000E+000       0.0000000000E+000       2.7777777778E-003       2.0000648635E-001
       0.0000000000E+000       7.0661519181E-001       0.0000000000E+000       1.0485488847E+002       0.0000000000E+000       0.0000000000E+000       1.0000000000E+000       5.8740351345E+001       1.5881031527E+003       2.3883112454E+001       1.0000000000E-003       1.0000000000E-003       0.0000000000E+000       1.0000000000E+000       0.0000000000E+000       2.7777777778E-003       1.9420556397E-001
       0.0000000000E+000       7.1911200840E-001       0.0000000000E+000       1.0375756623E+002       0.0000000000E+000       0.0000000000E+000       1.0000000000E+000       5.8113402552E+001       1.6013460712E+003       2.3593685145E+001       1.0000000000E-003       1.0000000000E-003       0.0000000000E+000       1.0000000000E+000       0.0000000000E+000       2.7777777778E-003       1.8823399104E-001
       0.0000000000E+000       7.3122771176E-001       0.0000000000E+000       1.0266793702E+002       0.0000000000E+000       0.0000000000E+000       1.0000000000E+000       5.7448165395E+001       1.6142670081E+003       2.3278609162E+001       1.0000000000E-003       1.0000000000E-003       0.0000000000E+000       1.0000000000E+000       0.0000000000E+000       2.7777777778E-003       1.8212394422E-001
       0.0000000000E+000       7.4296502236E-001       0.0000000000E+000       1.0158551178E+002       0.0000000000E+000       0.0000000000E+000       1.0000000000E+000       5.6749725428E+001       1.6269716229E+003       2.2939859400E+001       1.0000000000E-003       1.0000000000E-003       0.0000000000E+000       1.0000000000E+000       0.0000000000E+000       2.7777777778E-003       1.7590640067E-001
       0.0000000000E+000       7.5432740911E-001       0.0000000000E+000       1.0050975964E+002       0.0000000000E+000       0.0000000000E+000       1.0000000000E+000       5.6023098253E+001       1.6395714988E+003       2.2579399275E+001       1.0000000000E-003       1.0000000000E-003       0.0000000000E+000       1.0000000000E+000       0.0000000000E+000       2.7777777778E-003       1.6961097852E-001
       0.0000000000E+000       7.6531902954E-001       0.0000000000E+000       9.9440109629E+001       0.0000000000E+000       0.0000000000E+000       1.0000000000E+000       5.5273219479E+001       1.6521849597E+003       2.2199171153E+001       1.0000000000E-003       1.0000000000E-003       0.0000000000E+000       1.0000000000E+000       0.0000000000E+000       2.7777777778E-003       1.6326580030E-001
       0.0000000000E+000       7.7594467035E-001       0.0000000000E+000       9.8375951993E+001       0.0000000000E+000       0.0000000000E+000       1.0000000000E+000       5.4504935779E+001       1.6649379676E+003       2.1801086890E+001       1.0000000000E-003       1.0000000000E-003       0.0000000000E+000       1.0000000000E+000       0.0000000000E+000       2.7777777778E-003       1.5689737923E-001
       0.0000000000E+000       7.8620968872E-001       0.0000000000E+000       9.7316638984E+001       0.0000000000E+000       0.0000000000E+000       1.0000000000E+000       5.3722997135E+001       1.6779651143E+003       2.1387018528E+001       1.0000000000E-003       1.0000000000E-003       0.0000000000E+000       1.0000000000E+000       0.0000000000E+000       2.7777777778E-003       1.5053052842E-001
       0.0000000000E+000       7.9611995484E-001       0.0000000000E+000       9.6261485180E+001       0.0000000000E+000       0.0000000000E+000       1.0000000000E+000       5.2932050318E+001       1.6914107254E+003       2.0958789235E+001       1.0000000000E-003       1.0000000000E-003       0.0000000000E+000       1.0000000000E+000       0.0000000000E+000       2.7777777778E-003       1.4418829261E-001
       0.0000000000E+000       8.0568179598E-001       0.0000000000E+000       9.5209767265E+001       0.0000000000E+000       0.0000000000E+000       1.0000000000E+000       5.2136633663E+001       1.7054300934E+003       2.0518164513E+001       1.0000000000E-003       1.0000000000E-003       0.0000000000E+000       1.0000000000E+000       0.0000000000E+000       2.7777777778E-003       1.3789190198E-001
       0.0000000000E+000       8.1490194236E-001       0.0000000000E+000       9.4160723217E+001       0.0000000000E+000       0.0000000000E+000       1.0000000000E+000       5.1341173163E+001       1.7201908621E+003       2.0066843775E+001       1.0000000000E-003       1.0000000000E-003       0.0000000000E+000       1.0000000000E+000       0.0000000000E+000       2.7777777778E-003       1.3166074730E-001
       0.0000000000E+000       8.2378747516E-001       0.0000000000E+000       9.3113550889E+001       0.0000000000E+000       0.0000000000E+000       1.0000000000E+000       5.0549979885E+001       1.7358745863E+003       1.9606452323E+001       1.0000000000E-003       1.0000000000E-003       0.0000000000E+000       1.0000000000E+000       0.0000000000E+000       2.7777777778E-003       1.2551237560E-001
       0.0000000000E+000       8.3234577677E-001       0.0000000000E+000       9.2067405892E+001       0.0000000000E+000       0.0000000000E+000       1.0000000000E+000       4.9767248701E+001       1.7526784903E+003       1.9138533799E+001       1.0000000000E-003       1.0000000000E-003       0.0000000000E+000       1.0000000000E+000       0.0000000000E+000       2.7777777778E-003       1.1946250536E-001
       0.0000000000E+000       8.4058448357E-001       0.0000000000E+000       9.1021398757E+001       0.0000000000E+000       0.0000000000E+000       1.0000000000E+000       4.8997058263E+001       1.7708174556E+003       1.8664543169E+001       1.0000000000E-003       1.0000000000E-003       0.0000000000E+000       1.0000000000E+000       0.0000000000E+000       2.7777777778E-003       1.1352506006E-001
       0.0000000000E+000       8.4851144115E-001       0.0000000000E+000       8.9974591281E+001       0.0000000000E+000       0.0000000000E+000       1.0000000000E+000       4.8243372135E+001       1.7905262658E+003       1.8185840275E+001       1.0000000000E-003       1.0000000000E-003       0.0000000000E+000       1.0000000000E+000       0.0000000000E+000       2.7777777778E-003       1.0771221884E-001
       0.0000000000E+000       8.5613466229E-001       0.0000000000E+000       8.8925991996E+001       0.0000000000E+000       0.0000000000E+000       1.0000000000E+000       4.7510040917E+001       1.8120621401E+003       1.7703684023E+001       1.0000000000E-003       1.0000000000E-003       0.0000000000E+000       1.0000000000E+000       0.0000000000E+000       2.7777777778E-003       1.0203448283E-001
       0.0000000000E+000       8.6346228758E-001       0.0000000000E+000       8.7874550670E+001       0.0000000000E+000       0.0000000000E+000       1.0000000000E+000       4.6800805139E+001       1.8357075879E+003       1.7219227255E+001       1.0000000000E-003       1.0000000000E-003       0.0000000000E+000       1.0000000000E+000       0.0000000000E+000       2.7777777778E-003       9.6500755787E-002
       0.0000000000E+000       8.7050254873E-001       0.0000000000E+000       8.6819151762E+001       0.0000000000E+000       0.0000000000E+000       1.0000000000E+000       4.6119298631E+001       1.8617736149E+003       1.6733512371E+001       1.0000000000E-003       1.0000000000E-003       0.0000000000E+000       1.0000000000E+000       0.0000000000E+000       2.7777777778E-003       9.1118437287E-002
       0.0000000000E+000       8.7726373460E-001       0.0000000000E+000       8.5758606717E+001       0.0000000000E+000       0.0000000000E+000       1.0000000000E+000       4.5469051962E+001       1.8906033118E+003       1.6247467809E+001       1.0000000000E-003       1.0000000000E-003       0.0000000000E+000       1.0000000000E+000       0.0000000000E+000       2.7777777778E-003       8.5893527108E-002
       0.0000000000E+000       8.8375415988E-001       0.0000000000E+000       8.4691645006E+001       0.0000000000E+000       0.0000000000E+000       1.0000000000E+000       4.4853495435E+001       1.9225758511E+003       1.5761905540E+001       1.0000000000E-003       1.0000000000E-003       0.0000000000E+000       1.0000000000E+000       0.0000000000E+000       2.7777777778E-003       8.0830739112E-002
       0.0000000000E+000       8.8998213639E-001       0.0000000000E+000       8.3616903817E+001       0.0000000000E+000       0.0000000000E+000       1.0000000000E+000       4.4275960986E+001       1.9581109112E+003       1.5277519830E+001       1.0000000000E-003       1.0000000000E-003       0.0000000000E+000       1.0000000000E+000       0.0000000000E+000       2.7777777778E-003       7.5933623360E-002
       0.0000000000E+000       8.9595594686E-001       0.0000000000E+000       8.2532916290E+001       0.0000000000E+000       0.0000000000E+000       1.0000000000E+000       4.3739682197E+001       1.9976735386E+003       1.4794887721E+001       1.0000000000E-003       1.0000000000E-003       0.0000000000E+000       1.0000000000E+000       0.0000000000E+000       2.7777777778E-003       7.1204695481E-002
       0.0000000000E+000       9.0168382125E-001       0.0000000000E+000       8.1438098252E+001       0.0000000000E+000       0.0000000000E+000       1.0000000000E+000       4.3247791443E+001       2.0417794394E+003       1.4314471935E+001       1.0000000000E-003       1.0000000000E-003       0.0000000000E+000       1.0000000000E+000       0.0000000000E+000       2.7777777778E-003       6.6645573015E-002
       0.0000000000E+000       9.0717391533E-001       0.0000000000E+000       8.0330733466E+001       0.0000000000E+000       0.0000000000E+000       1.0000000000E+000       4.2803313083E+001       2.0910006768E+003       1.3836627392E+001       1.0000000000E-003       1.0000000000E-003       0.0000000000E+000       1.0000000000E+000       0.0000000000E+000       2.7777777778E-003       6.2257119451E-002
       0.0000000000E+000       9.1243429153E-001       0.0000000000E+000       7.9208957551E+001       0.0000000000E+000       0.0000000000E+000       1.0000000000E+000       4.2409151525E+001       2.1459717224E+003       1.3361613124E+001       1.0000000000E-003       1.0000000000E-003       0.0000000000E+000       1.0000000000E+000       0.0000000000E+000       2.7777777778E-003       5.8039598089E-002
       0.0000000000E+000       9.1747290199E-001       0.0000000000E+000       7.8070741011E+001       0.0000000000E+000       0.0000000000E+000       1.0000000000E+000       4.2068073082E+001       2.2073957933E+003       1.2889612259E+001       1.0000000000E-003       1.0000000000E-003       0.0000000000E+000       1.0000000000E+000       0.0000000000E+000       2.7777777778E-003       5.3992839176E-002
       0.0000000000E+000       9.2229757354E-001       0.0000000000E+000       7.6913872234E+001       0.0000000000E+000       0.0000000000E+000       1.0000000000E+000       4.1782680874E+001       2.2760513942E+003       1.2420763833E+001       1.0000000000E-003       1.0000000000E-003       0.0000000000E+000       1.0000000000E+000       0.0000000000E+000       2.7777777778E-003       5.0116425144E-002
       0.0000000000E+000       9.2691599462E-001       0.0000000000E+000       7.5735942021E+001       0.0000000000E+000       0.0000000000E+000       1.0000000000E+000       4.1555382520E+001       2.3527990063E+003       1.1955211203E+001       1.0000000000E-003       1.0000000000E-003       0.0000000000E+000       1.0000000000E+000       0.0000000000E+000       2.7777777778E-003       4.6409892407E-002
       0.0000000000E+000       9.3133570398E-001       0.0000000000E+000       7.4534327555E+001       0.0000000000E+000       0.0000000000E+000       1.0000000000E+000       4.1388346357E+001       2.4385877183E+003       1.1493072391E+001       1.0000000000E-003       1.0000000000E-003       0.0000000000E+000       1.0000000000E+000       0.0000000000E+000       2.7777777778E-003       4.2872585782E-002
       0.0000000000E+000       9.3556408104E-001       0.0000000000E+000       7.3306171972E+001       0.0000000000E+000       0.0000000000E+000       1.0000000000E+000       4.1283442387E+001       2.5344616889E+003       1.1034411764E+001       1.0000000000E-003       1.0000000000E-003       0.0000000000E+000       1.0000000000E+000       0.0000000000E+000       2.7777777778E-003       3.9503527545E-002
       0.0000000000E+000       9.3960833779E-001       0.0000000000E+000       7.2048358435E+001       0.0000000000E+000       0.0000000000E+000       1.0000000000E+000       4.1242161062E+001       2.6415656586E+003       1.0579214416E+001       1.0000000000E-003       1.0000000000E-003       0.0000000000E+000       1.0000000000E+000       0.0000000000E+000       2.7777777778E-003       3.6301310252E-002
       0.0000000000E+000       9.4347551212E-001       0.0000000000E+000       7.0757477377E+001       0.0000000000E+000       0.0000000000E+000       1.0000000000E+000       4.1265501557E+001       2.7611483786E+003       1.0127363570E+001       1.0000000000E-003       1.0000000000E-003       0.0000000000E+000       1.0000000000E+000       0.0000000000E+000       2.7777777778E-003       3.3264016412E-002