 VARIABLES ="X","Y","U","W","C","T","k","eps", "v2","omega","nuSA","yplus","RHO","Pe","mu","mut"
 ZONE I=            98  J=            16  F=POINT 
       0.0000000000E+000      -4.6333968368E-003       0.0000000000E+000       1.9415889891E+001       0.0000000000E+000       9.9999999878E-001       1.5229003380E+000       2.9371571747E+000       6.9460503447E-001       1.0000000000E-003       1.0000000000E-003       0.0000000000E+000       1.0000000003E+000       0.0000000000E+000       2.7777777791E-003       7.9232781709E-002
       0.0000000000E+000       4.6333968368E-003       0.0000000000E+000       1.9415889891E+001       0.0000000000E+000       9.9999999878E-001       1.5229003380E+000       2.9371571747E+000       6.9460503447E-001       1.0000000000E-003       1.0000000000E-003       0.0000000000E+000       1.0000000003E+000       0.0000000000E+000       2.7777777791E-003       7.9232781709E-002
       0.0000000000E+000       1.3960125430E-002       0.0000000000E+000       1.9413780559E+001       0.0000000000E+000       9.9999999878E-001       1.5244486571E+000       2.9444593393E+000       6.9454413653E-001       1.0000000000E-003       1.0000000000E-003       0.0000000000E+000       1.0000000003E+000       0.0000000000E+000       2.7777777791E-003       7.9109706064E-002
       0.0000000000E+000       2.3401918894E-002       0.0000000000E+000       1.9409472418E+001       0.0000000000E+000       9.9999999878E-001       1.5276102302E+000       2.9593927948E+000       6.9442011855E-001       1.0000000000E-003       1.0000000000E-003       0.0000000000E+000       1.0000000003E+000       0.0000000000E+000       2.7777777791E-003       7.8859663872E-002
       0.0000000000E+000       3.2948914513E-002       0.0000000000E+000       1.9402873048E+001       0.0000000000E+000       9.9999999878E-001       1.5324513444E+000       2.9823191833E+000       6.9423107362E-001       1.0000000000E-003       1.0000000000E-003       0.0000000000E+000       1.0000000003E+000       0.0000000000E+000       2.7777777791E-003       7.8480055609E-002
       0.0000000000E+000       4.2590763245E-002       0.0000000000E+000       1.9393886793E+001       0.0000000000E+000       9.9999999878E-001       1.5390397064E+000       3.0136364784E+000       6.9397542776E-001       1.0000000000E-003       1.0000000000E-003       0.0000000000E+000       1.0000000003E+000       0.0000000000E+000       2.7777777791E-003       7.7969676917E-002
       0.0000000000E+000       5.2316670463E-002       0.0000000000E+000       1.9382414542E+001       0.0000000000E+000       9.9999999878E-001       1.5474444403E+000       3.0537827809E+000       6.9365194478E-001       1.0000000000E-003       1.0000000000E-003       0.0000000000E+000       1.0000000003E+000       0.0000000000E+000       2.7777777791E-003       7.7328789579E-002
       0.0000000000E+000       6.2115441043E-002       0.0000000000E+000       1.9368353575E+001       0.0000000000E+000       9.9999999878E-001       1.5577359957E+000       3.1032400037E+000       6.9325971494E-001       1.0000000000E-003       1.0000000000E-003       0.0000000000E+000       1.0000000003E+000       0.0000000000E+000       2.7777777791E-003       7.6559155759E-002
       0.0000000000E+000       7.1975528421E-002       0.0000000000E+000       1.9351597512E+001       0.0000000000E+000       9.9999999878E-001       1.5699859496E+000       3.1625373826E+000       6.9279812449E-001       1.0000000000E-003       1.0000000000E-003       0.0000000000E+000       1.0000000003E+000       0.0000000000E+000       2.7777777791E-003       7.5664032335E-002
       0.0000000000E+000       8.1885087210E-002       0.0000000000E+000       1.9332036368E+001       0.0000000000E+000       9.9999999878E-001       1.5842666896E+000       3.2322547424E+000       6.9226680290E-001       1.0000000000E-003       1.0000000000E-003       0.0000000000E+000       1.0000000003E+000       0.0000000000E+000       2.7777777791E-003       7.4648123761E-002
       0.0000000000E+000       9.1832028879E-002       0.0000000000E+000       1.9309556727E+001       0.0000000000E+000       9.9999999878E-001       1.6006509680E+000       3.3130254442E+000       6.9166554508E-001       1.0000000000E-003       1.0000000000E-003       0.0000000000E+000       1.0000000003E+000       0.0000000000E+000       2.7777777791E-003       7.3517493762E-002
       0.0000000000E+000       1.0180407995E-001       0.0000000000E+000       1.9284042052E+001       0.0000000000E+000       9.9999999878E-001       1.6192113175E+000       3.4055389369E+000       6.9099420588E-001       1.0000000000E-003       1.0000000000E-003       0.0000000000E+000       1.0000000003E+000       0.0000000000E+000       2.7777777791E-003       7.2279438030E-002
       0.0000000000E+000       1.1178884212E-001       0.0000000000E+000       1.9255373137E+001       0.0000000000E+000       9.9999999878E-001       1.6400193279E+000       3.5105428380E+000       6.9025256495E-001       1.0000000000E-003       1.0000000000E-003       0.0000000000E+000       1.0000000003E+000       0.0000000000E+000       2.7777777791E-003       7.0942322047E-002
       0.0000000000E+000       1.2177385375E-001       0.0000000000E+000       1.9223428695E+001       0.0000000000E+000       9.9999999878E-001       1.6631447862E+000       3.6288444724E+000       6.8944016115E-001       1.0000000000E-003       1.0000000000E-003       0.0000000000E+000       1.0000000003E+000       0.0000000000E+000       2.7777777791E-003       6.9515389837E-002
       0.0000000000E+000       1.3174665193E-001       0.0000000000E+000       1.9188086094E+001       0.0000000000E+000       9.9999999878E-001       1.6886546891E+000       3.7613118109E+000       6.8855609661E-001       1.0000000000E-003       1.0000000000E-003       0.0000000000E+000       1.0000000003E+000       0.0000000000E+000       2.7777777791E-003       6.8008550957E-002
       0.0000000000E+000       1.4169483466E-001       0.0000000000E+000       1.9149222213E+001       0.0000000000E+000       9.9999999878E-001       1.7166121473E+000       3.9088737666E+000       6.8759881251E-001       1.0000000000E-003       1.0000000000E-003       0.0000000000E+000       1.0000000003E+000       0.0000000000E+000       2.7777777791E-003       6.6432154087E-002
       0.0000000000E+000       1.5160612229E-001       0.0000000000E+000       1.9106714415E+001       0.0000000000E+000       9.9999999878E-001       1.7470752042E+000       4.0725198302E+000       6.8656584060E-001       1.0000000000E-003       1.0000000000E-003       0.0000000000E+000       1.0000000003E+000       0.0000000000E+000       2.7777777791E-003       6.4796756174E-002
       0.0000000000E+000       1.6146841776E-001       0.0000000000E+000       1.9060441610E+001       0.0000000000E+000       9.9999999878E-001       1.7800956033E+000       4.2532990568E+000       6.8545353633E-001       1.0000000000E-003       1.0000000000E-003       0.0000000000E+000       1.0000000003E+000       0.0000000000E+000       2.7777777791E-003       6.3112896197E-002
       0.0000000000E+000       1.7126986487E-001       0.0000000000E+000       1.9010285369E+001       0.0000000000E+000       9.9999999878E-001       1.8157175420E+000       4.4523184531E+000       6.8425680216E-001       1.0000000000E-003       1.0000000000E-003       0.0000000000E+000       1.0000000003E+000       0.0000000000E+000       2.7777777791E-003       6.1390882152E-002
       0.0000000000E+000       1.8099890407E-001       0.0000000000E+000       1.8956131062E+001       0.0000000000E+000       9.9999999878E-001       1.8539764576E+000       4.6707408486E+000       6.8296881160E-001       1.0000000000E-003       1.0000000000E-003       0.0000000000E+000       1.0000000003E+000       0.0000000000E+000       2.7777777791E-003       5.9640598929E-002
       0.0000000000E+000       1.9064432522E-001       0.0000000000E+000       1.8897868965E+001       0.0000000000E+000       9.9999999878E-001       1.8948978904E+000       4.9097823776E+000       6.8158074611E-001       1.0000000000E-003       1.0000000000E-003       0.0000000000E+000       1.0000000003E+000       0.0000000000E+000       2.7777777791E-003       5.7871343412E-002
       0.0000000000E+000       2.0019531677E-001       0.0000000000E+000       1.8835395296E+001       0.0000000000E+000       9.9999999878E-001       1.9384964728E+000       5.1707097308E+000       6.8008155893E-001       1.0000000000E-003       1.0000000000E-003       0.0000000000E+000       1.0000000003E+000       0.0000000000E+000       2.7777777791E-003       5.6091691450E-002
       0.0000000000E+000       2.0964151104E-001       0.0000000000E+000       1.8768613144E+001       0.0000000000E+000       9.9999999878E-001       1.9847750853E+000       5.4548373628E+000       6.7845777964E-001       1.0000000000E-003       1.0000000000E-003       0.0000000000E+000       1.0000000003E+000       0.0000000000E+000       2.7777777791E-003       5.4309399500E-002
       0.0000000000E+000       2.1897302515E-001       0.0000000000E+000       1.8697433217E+001       0.0000000000E+000       9.9999999878E-001       2.0337242188E+000       5.7635248586E+000       6.7669337350E-001       1.0000000000E-003       1.0000000000E-003       0.0000000000E+000       1.0000000003E+000       0.0000000000E+000       2.7777777791E-003       5.2531341853E-002
       0.0000000000E+000       2.2818049727E-001       0.0000000000E+000       1.8621774398E+001       0.0000000000E+000       9.9999999878E-001       2.0853215659E+000       6.0981746607E+000       6.7476966772E-001       1.0000000000E-003       1.0000000000E-003       0.0000000000E+000       1.0000000003E+000       0.0000000000E+000       2.7777777791E-003       5.0763482544E-002
       0.0000000000E+000       2.3725511815E-001       0.0000000000E+000       1.8541564065E+001       0.0000000000E+000       9.9999999878E-001       2.1395318582E+000       6.4602303427E+000       6.7266535464E-001       1.0000000000E-003       1.0000000000E-003       0.0000000000E+000       1.0000000003E+000       0.0000000000E+000       2.7777777791E-003       4.9010879438E-002
       0.0000000000E+000       2.4618865751E-001       0.0000000000E+000       1.8456738146E+001       0.0000000000E+000       9.9999999878E-001       2.1963069453E+000       6.8511755781E+000       6.7035657834E-001       1.0000000000E-003       1.0000000000E-003       0.0000000000E+000       1.0000000003E+000       0.0000000000E+000       2.7777777791E-003       4.7277716702E-002
       0.0000000000E+000       2.5497348552E-001       0.0000000000E+000       1.8367240906E+001       0.0000000000E+000       9.9999999878E-001       2.2555861018E+000       7.2725338998E+000       6.6781710729E-001       1.0000000000E-003       1.0000000000E-003       0.0000000000E+000       1.0000000003E+000       0.0000000000E+000       2.7777777791E-003       4.5567360914E-002
       0.0000000000E+000       2.6360258909E-001       0.0000000000E+000       1.8273024467E+001       0.0000000000E+000       9.9999999878E-001       2.3172965295E+000       7.7258692782E+000       6.6501859138E-001       1.0000000000E-003       1.0000000000E-003       0.0000000000E+000       1.0000000003E+000       0.0000000000E+000       2.7777777791E-003       4.3882435511E-002
       0.0000000000E+000       2.7206958327E-001       0.0000000000E+000       1.8174048058E+001       0.0000000000E+000       9.9999999878E-001       2.3813540117E+000       8.2127874622E+000       6.6193089749E-001       1.0000000000E-003       1.0000000000E-003       0.0000000000E+000       1.0000000003E+000       0.0000000000E+000       2.7777777791E-003       4.2224908087E-002
       0.0000000000E+000       2.8036871763E-001       0.0000000000E+000       1.8070277038E+001       0.0000000000E+000       9.9999999878E-001       2.4476636647E+000       8.7349379433E+000       6.5852251372E-001       1.0000000000E-003       1.0000000000E-003       0.0000000000E+000       1.0000000003E+000       0.0000000000E+000       2.7777777791E-003       4.0596185211E-002
       0.0000000000E+000       2.8849487814E-001       0.0000000000E+000       1.7961681702E+001       0.0000000000E+000       9.9999999878E-001       2.5161207253E+000       9.2940163084E+000       6.5476100958E-001       1.0000000000E-003       1.0000000000E-003       0.0000000000E+000       1.0000000003E+000       0.0000000000E+000       2.7777777791E-003       3.8997209848E-002
       0.0000000000E+000       2.9644358439E-001       0.0000000000E+000       1.7848235922E+001       0.0000000000E+000       9.9999999878E-001       2.5866113083E+000       9.8917666569E+000       6.5061353676E-001       1.0000000000E-003       1.0000000000E-003       0.0000000000E+000       1.0000000003E+000       0.0000000000E+000       2.7777777791E-003       3.7428557092E-002
       0.0000000000E+000       3.0421098279E-001       0.0000000000E+000       1.7729915648E+001       0.0000000000E+000       9.9999999878E-001       2.6590130704E+000       1.0529983673E+001       6.4604735435E-001       1.0000000000E-003       1.0000000000E-003       0.0000000000E+000       1.0000000003E+000       0.0000000000E+000       2.7777777791E-003       3.5890524706E-002
       0.0000000000E+000       3.1179383578E-001       0.0000000000E+000       1.7606697328E+001       0.0000000000E+000       9.9999999878E-001       2.7331957148E+000       1.1210513858E+001       6.4103036184E-001       1.0000000000E-003       1.0000000000E-003       0.0000000000E+000       1.0000000003E+000       0.0000000000E+000       2.7777777791E-003       3.4383215737E-002
       0.0000000000E+000       3.1918950757E-001       0.0000000000E+000       1.7478556270E+001       0.0000000000E+000       9.9999999878E-001       2.8090212826E+000       1.1935255345E+001       6.3553162418E-001       1.0000000000E-003       1.0000000000E-003       0.0000000000E+000       1.0000000003E+000       0.0000000000E+000       2.7777777791E-003       3.2906611342E-002
       0.0000000000E+000       3.2639594666E-001       0.0000000000E+000       1.7345464995E+001       0.0000000000E+000       9.9999999878E-001       2.8863441759E+000       1.2706155652E+001       6.2952187483E-001       1.0000000000E-003       1.0000000000E-003       0.0000000000E+000       1.0000000003E+000       0.0000000000E+000       2.7777777791E-003       3.1460632659E-002
       0.0000000000E+000       3.3341166559E-001       0.0000000000E+000       1.7207391608E+001       0.0000000000E+000       9.9999999878E-001       2.9650108734E+000       1.3525206633E+001       6.2297398473E-001       1.0000000000E-003       1.0000000000E-003       0.0000000000E+000       1.0000000003E+000       0.0000000000E+000       2.7777777791E-003       3.0045191298E-002
       0.0000000000E+000       3.4023571818E-001       0.0000000000E+000       1.7064298221E+001       0.0000000000E+000       9.9999999878E-001       3.0448592977E+000       1.4394435814E+001       6.1586338793E-001       1.0000000000E-003       1.0000000000E-003       0.0000000000E+000       1.0000000003E+000       0.0000000000E+000       2.7777777791E-003       2.8660228528E-002
       0.0000000000E+000       3.4686767480E-001       0.0000000000E+000       1.6916139443E+001       0.0000000000E+000       9.9999999878E-001       3.1257178095E+000       1.5315893208E+001       6.0816845697E-001       1.0000000000E-003       1.0000000000E-003       0.0000000000E+000       1.0000000003E+000       0.0000000000E+000       2.7777777791E-003       2.7305743741E-002
       0.0000000000E+000       3.5330759591E-001       0.0000000000E+000       1.6762860965E+001       0.0000000000E+000       9.9999999878E-001       3.2074038010E+000       1.6291632575E+001       5.9987082426E-001       1.0000000000E-003       1.0000000000E-003       0.0000000000E+000       1.0000000003E+000       0.0000000000E+000       2.7777777791E-003       2.5981813045E-002
       0.0000000000E+000       3.5955600420E-001       0.0000000000E+000       1.6604398241E+001       0.0000000000E+000       9.9999999878E-001       3.2897218745E+000       1.7323685997E+001       5.9095564766E-001       1.0000000000E-003       1.0000000000E-003       0.0000000000E+000       1.0000000003E+000       0.0000000000E+000       2.7777777791E-003       2.4688599114E-002
       0.0000000000E+000       3.6561385588E-001       0.0000000000E+000       1.6440675295E+001       0.0000000000E+000       9.9999999878E-001       3.3724615881E+000       1.8414030476E+001       5.8141182117E-001       1.0000000000E-003       1.0000000000E-003       0.0000000000E+000       1.0000000003E+000       0.0000000000E+000       2.7777777791E-003       2.3426353516E-002
       0.0000000000E+000       3.7148251118E-001       0.0000000000E+000       1.6271603634E+001       0.0000000000E+000       9.9999999878E-001       3.4553947604E+000       1.9564545104E+001       5.7123213318E-001       1.0000000000E-003       1.0000000000E-003       0.0000000000E+000       1.0000000003E+000       0.0000000000E+000       2.7777777791E-003       2.2195412786E-002
       0.0000000000E+000       3.7716370456E-001       0.0000000000E+000       1.6097081308E+001       0.0000000000E+000       9.9999999878E-001       3.5382723253E+000       2.0776957195E+001       5.6041337630E-001       1.0000000000E-003       1.0000000000E-003       0.0000000000E+000       1.0000000003E+000       0.0000000000E+000       2.7777777791E-003       2.0996189522E-002
       0.0000000000E+000       3.8265951477E-001       0.0000000000E+000       1.5916992085E+001       0.0000000000E+000       9.9999999878E-001       3.6208207322E+000       2.2052775576E+001       5.4895641401E-001       1.0000000000E-003       1.0000000000E-003       0.0000000000E+000       1.0000000003E+000       0.0000000000E+000       2.7777777791E-003       1.9829159687E-002
       0.0000000000E+000       3.8797233517E-001       0.0000000000E+000       1.5731204790E+001       0.0000000000E+000       9.9999999878E-001       3.7027378944E+000       2.3393209066E+001       5.3686621002E-001       1.0000000000E-003       1.0000000000E-003       0.0000000000E+000       1.0000000003E+000       0.0000000000E+000       2.7777777791E-003       1.8694847215E-002
       0.0000000000E+000       3.9310484436E-001       0.0000000000E+000       1.5539572785E+001       0.0000000000E+000       9.9999999878E-001       3.7836886913E+000       2.4799068033E+001       5.2415182658E-001       1.0000000000E-003       1.0000000000E-003       0.0000000000E+000       1.0000000003E+000       0.0000000000E+000       2.7777777791E-003       1.7593806917E-002
       0.0000000000E+000       3.9805997742E-001       0.0000000000E+000       1.5341933622E+001       0.0000000000E+000       9.9999999878E-001       3.8633000438E+000       2.6270646804E+001       5.1082639864E-001       1.0000000000E-003       1.0000000000E-003       0.0000000000E+000       1.0000000003E+000       0.0000000000E+000       2.7777777791E-003       1.6526606521E-002
       0.0000000000E+000       4.0284089799E-001       0.0000000000E+000       1.5138108894E+001       0.0000000000E+000       9.9999999878E-001       3.9411555977E+000       2.7807584727E+001       4.9690708995E-001       1.0000000000E-003       1.0000000000E-003       0.0000000000E+000       1.0000000003E+000       0.0000000000E+000       2.7777777791E-003       1.5493808591E-002
       0.0000000000E+000       4.0745097118E-001       0.0000000000E+000       1.4927904290E+001       0.0000000000E+000       9.9999999878E-001       4.0167900691E+000       2.9408703809E+001       4.8241503775E-001       1.0000000000E-003       1.0000000000E-003       0.0000000000E+000       1.0000000003E+000       0.0000000000E+000       2.7777777791E-003       1.4495952903E-002
       0.0000000000E+000       4.1189373758E-001       0.0000000000E+000       1.4711109915E+001       0.0000000000E+000       9.9999999878E-001       4.0896833395E+000       3.1071821204E+001       4.6737529164E-001       1.0000000000E-003       1.0000000000E-003       0.0000000000E+000       1.0000000003E+000       0.0000000000E+000       2.7777777791E-003       1.3533539761E-002
       0.0000000000E+000       4.1617288839E-001       0.0000000000E+000       1.4487500896E+001       0.0000000000E+000       9.9999999878E-001       4.1592544269E+000       3.2793535505E+001       4.5181675211E-001       1.0000000000E-003       1.0000000000E-003       0.0000000000E+000       1.0000000003E+000       0.0000000000E+000       2.7777777791E-003       1.2607014632E-002
       0.0000000000E+000       4.2029224178E-001       0.0000000000E+000       1.4256838345E+001       0.0000000000E+000       9.9999999878E-001       4.2248555140E+000       3.4568986860E+001       4.3577211317E-001       1.0000000000E-003       1.0000000000E-003       0.0000000000E+000       1.0000000003E+000       0.0000000000E+000       2.7777777791E-003       1.1716754359E-002
       0.0000000000E+000       4.2425572057E-001       0.0000000000E+000       1.4018870727E+001       0.0000000000E+000       9.9999999878E-001       4.2857662828E+000       3.6391592533E+001       4.1927781278E-001       1.0000000000E-003       1.0000000000E-003       0.0000000000E+000       1.0000000003E+000       0.0000000000E+000       2.7777777791E-003       1.0863055159E-002
       0.0000000000E+000       4.2806733114E-001       0.0000000000E+000       1.3773335727E+001       0.0000000000E+000       9.9999999878E-001       4.3411888908E+000       3.8252761900E+001       4.0237399379E-001       1.0000000000E-003       1.0000000000E-003       0.0000000000E+000       1.0000000003E+000       0.0000000000E+000       2.7777777791E-003       1.0046122519E-002
       0.0000000000E+000       4.3173114379E-001       0.0000000000E+000       1.3519962692E+001       0.0000000000E+000       9.9999999878E-001       4.3902440307E+000       4.0141598014E+001       3.8510447654E-001       1.0000000000E-003       1.0000000000E-003       0.0000000000E+000       1.0000000003E+000       0.0000000000E+000       2.7777777791E-003       9.2660630614E-003
       0.0000000000E+000       4.3525127437E-001       0.0000000000E+000       1.3258475751E+001       0.0000000000E+000       9.9999999878E-001       4.4319686380E+000       4.2044597127E+001       3.6751674296E-001       1.0000000000E-003       1.0000000000E-003       0.0000000000E+000       1.0000000003E+000       0.0000000000E+000       2.7777777791E-003       8.5228784179E-003
       0.0000000000E+000       4.3863186730E-001       0.0000000000E+000       1.2988597725E+001       0.0000000000E+000       9.9999999878E-001       4.4653159537E+000       4.3945362895E+001       3.4966192989E-001       1.0000000000E-003       1.0000000000E-003       0.0000000000E+000       1.0000000003E+000       0.0000000000E+000       2.7777777791E-003       7.8164610816E-003
       0.0000000000E+000       4.4187707994E-001       0.0000000000E+000       1.2710054957E+001       0.0000000000E+000       9.9999999878E-001       4.4891588067E+000       4.5824358541E+001       3.3159482715E-001       1.0000000000E-003       1.0000000000E-003       0.0000000000E+000       1.0000000003E+000       0.0000000000E+000       2.7777777791E-003       7.1465922279E-003
       0.0000000000E+000       4.4499106819E-001       0.0000000000E+000       1.2422583163E+001       0.0000000000E+000       9.9999999878E-001       4.5022971386E+000       4.7658727897E+001       3.1337387296E-001       1.0000000000E-003       1.0000000000E-003       0.0000000000E+000       1.0000000003E+000       0.0000000000E+000       2.7777777791E-003       6.5129414473E-003
       0.0000000000E+000       4.4797797343E-001       0.0000000000E+000       1.2125934466E+001       0.0000000000E+000       9.9999999878E-001       4.5034709420E+000       4.9422224609E+001       2.9506113611E-001       1.0000000000E-003       1.0000000000E-003       0.0000000000E+000       1.0000000003E+000       0.0000000000E+000       2.7777777791E-003       5.9150683317E-003
       0.0000000000E+000       4.5084191063E-001       0.0000000000E+000       1.1819885695E+001       0.0000000000E+000       9.9999999878E-001       4.4913798998E+000       5.1085297279E+001       2.7672227045E-001       1.0000000000E-003       1.0000000000E-003       0.0000000000E+000       1.0000000003E+000       0.0000000000E+000       2.7777777791E-003       5.3524258482E-003
       0.0000000000E+000       4.5358695766E-001       0.0000000000E+000       1.1504248085E+001       0.0000000000E+000       9.9999999878E-001       4.4647110540E+000       5.2615385747E+001       2.5842642285E-001       1.0000000000E-003       1.0000000000E-003       0.0000000000E+000       1.0000000003E+000       0.0000000000E+000       2.7777777791E-003       4.8243654202E-003
       0.0000000000E+000       4.5621714576E-001       0.0000000000E+000       1.1178878427E+001       0.0000000000E+000       9.9999999878E-001       4.4221757667E+000       5.3977488557E+001       2.4024607150E-001       1.0000000000E-003       1.0000000000E-003       0.0000000000E+000       1.0000000003E+000       0.0000000000E+000       2.7777777791E-003       4.3301436307E-003
       0.0000000000E+000       4.5873645099E-001       0.0000000000E+000       1.0843691711E+001       0.0000000000E+000       9.9999999878E-001       4.3625569943E+000       5.5135061643E+001       2.2225676680E-001       1.0000000000E-003       1.0000000000E-003       0.0000000000E+000       1.0000000003E+000       0.0000000000E+000       2.7777777791E-003       3.8689304497E-003
       0.0000000000E+000       4.6114878677E-001       0.0000000000E+000       1.0498675206E+001       0.0000000000E+000       9.9999999878E-001       4.2847674295E+000       5.6051300840E+001       2.0453674345E-001       1.0000000000E-003       1.0000000000E-003       0.0000000000E+000       1.0000000003E+000       0.0000000000E+000       2.7777777791E-003       3.4398188801E-003
       0.0000000000E+000       4.6345799731E-001       0.0000000000E+000       1.0143903870E+001       0.0000000000E+000       9.9999999878E-001       4.1879182905E+000       5.6690843127E+001       1.8716637022E-001       1.0000000000E-003       1.0000000000E-003       0.0000000000E+000       1.0000000003E+000       0.0000000000E+000       2.7777777791E-003       3.0418359103E-003
       0.0000000000E+000       4.6566785199E-001       0.0000000000E+000       9.7795568255E+000       0.0000000000E+000       9.9999999878E-001       4.0713974309E+000       5.7021891110E+001       1.7022740442E-001       1.0000000000E-003       1.0000000000E-003       0.0000000000E+000       1.0000000003E+000       0.0000000000E+000       2.7777777791E-003       2.6739546660E-003
       0.0000000000E+000       4.6778204052E-001       0.0000000000E+000       9.4059345563E+000       0.0000000000E+000       9.9999999878E-001       3.9349539532E+000       5.7018720892E+001       1.5380202259E-001       1.0000000000E-003       1.0000000000E-003       0.0000000000E+000       1.0000000003E+000       0.0000000000E+000       2.7777777791E-003       2.3351076779E-003
       0.0000000000E+000       4.6980416890E-001       0.0000000000E+000       9.0234762855E+000       0.0000000000E+000       9.9999999878E-001       3.7787847099E+000       5.6664476110E+001       1.3797160936E-001       1.0000000000E-003       1.0000000000E-003       0.0000000000E+000       1.0000000003E+000       0.0000000000E+000       2.7777777791E-003       2.0242012217E-003
       0.0000000000E+000       4.7173775606E-001       0.0000000000E+000       8.6327768705E+000       0.0000000000E+000       9.9999999878E-001       3.6036160638E+000       5.5954085050E+001       1.2281530296E-001       1.0000000000E-003       1.0000000000E-003       0.0000000000E+000       1.0000000003E+000       0.0000000000E+000       2.7777777791E-003       1.7401307455E-003
       0.0000000000E+000       4.7358623122E-001       0.0000000000E+000       8.2346023918E+000       0.0000000000E+000       9.9999999878E-001       3.4107723083E+000       5.4897071968E+001       1.0840831937E-001       1.0000000000E-003       1.0000000000E-003       0.0000000000E+000       1.0000000003E+000       0.0000000000E+000       2.7777777791E-003       1.4817974389E-003
       0.0000000000E+000       4.7535293177E-001       0.0000000000E+000       7.8299034879E+000       0.0000000000E+000       9.9999999878E-001       3.2022205645E+000       5.3519981083E+001       9.4820105977E-002       1.0000000000E-003       1.0000000000E-003       0.0000000000E+000       1.0000000003E+000       0.0000000000E+000       2.7777777791E-003       1.2481259372E-003
       0.0000000000E+000       4.7704110176E-001       0.0000000000E+000       7.4198253721E+000       0.0000000000E+000       9.9999999878E-001       2.9805812188E+000       5.1868108134E+001       8.2112404882E-002       1.0000000000E-003       1.0000000000E-003       0.0000000000E+000       1.0000000003E+000       0.0000000000E+000       2.7777777791E-003       1.0380828250E-003
       0.0000000000E+000       4.7865389090E-001       0.0000000000E+000       7.0057133185E+000       0.0000000000E+000       9.9999999878E-001       2.7490935152E+000       5.0006256061E+001       7.0337330665E-002       1.0000000000E-003       1.0000000000E-003       0.0000000000E+000       1.0000000003E+000       0.0000000000E+000       2.7777777791E-003       8.5069471862E-004
       0.0000000000E+000       4.8019435391E-001       0.0000000000E+000       6.5891121105E+000       0.0000000000E+000       9.9999999878E-001       2.5115282104E+000       4.8018310797E+001       5.9535576822E-002       1.0000000000E-003       1.0000000000E-003       0.0000000000E+000       1.0000000003E+000       0.0000000000E+000       2.7777777791E-003       6.8506286917E-004